/*--------------------------------*- C++ -*----------------------------------*\
  =========                 |
  \\      /  F ield         | OpenFOAM: The Open Source CFD Toolbox
   \\    /   O peration     | Website:  https://openfoam.org
    \\  /    A nd           | Version:  9
     \\/     M anipulation  |
\*---------------------------------------------------------------------------*/
FoamFile
{
    format      ascii;
    class       volScalarField;
    location    "0.01";
    object      gas::h;
}
// * * * * * * * * * * * * * * * * * * * * * * * * * * * * * * * * * * * * * //

dimensions      [0 2 -2 0 0 0 0];

internalField   nonuniform List<scalar> 
1800
(
299447.169672523683
298317.067900158465
296255.164731242519
292795.068941408186
290344.573969922203
289487.088956058666
289237.491606688302
289175.13625180308
289161.455357519328
289158.769354311808
289158.291092653933
289158.213002393895
289158.201213729917
289158.199556176376
289158.199338112841
299452.913948188128
298387.888139704126
296443.044964682194
293174.839872947719
290549.054469796887
289566.473249926465
289262.397671410814
289181.735305845563
289162.97455488384
289159.080227875966
289158.348509123083
289158.222700339335
289158.202725027979
289158.199775226298
289158.199368063128
299454.209301152383
298398.533900309936
296471.441554812074
293229.261543959728
290578.213108724507
289577.715884572419
289265.949270168843
289182.691817880434
289163.19991636317
289159.127570444136
289158.35751165665
289158.224260303541
289158.202974317363
289158.199812274193
289158.199373250362
299453.684396769444
298391.278531696473
296453.927311025735
293197.520124650444
290564.400170326349
289573.557800903334
289264.95215613133
289182.494319132122
289163.167082161352
289159.12290399638
289158.356954983261
289158.224212044443
289158.202972890809
289158.199812768842
289158.19937340304
299453.553784597199
298391.329382074066
296453.929984598595
293197.027911248035
290563.765110091481
289573.184306125971
289264.807357010432
289182.451544342155
289163.15663661866
289159.120783248276
289158.356576279562
289158.224149010319
289158.202963392716
289158.199811478378
289158.19937323709
299453.229453852749
298387.38538513839
296444.02788837452
293178.087527058262
290554.590242372185
289570.101568167447
289263.974193071306
289182.262794927286
289163.11960490339
289159.114293482795
289158.355548588734
289158.224001517112
289158.202943750483
289158.199809015205
289158.199372946459
299453.19844815525
298387.89421542926
296445.330680718704
293180.583117234055
290555.689407437167
289570.384771508805
289264.023150638386
289182.266196609009
289163.118545225123
289159.113816093712
289158.355421938642
289158.223974370456
289158.202938946371
289158.199808276666
289158.199372841569
299453.056188726099
298386.001250612375
296440.383044602582
293170.602443825977
290550.52825116954
289568.566137253947
289263.514212955371
289182.14822534495
289163.09504799376
289159.109668804915
289158.354766861652
289158.223880791222
289158.202926574508
289158.199806744989
289158.199372662348
299453.061913879355
298386.539605961123
296441.890433156164
293173.874059073394
290552.289791250485
289569.171596330125
289263.675192754774
289182.182145380822
289163.100947211613
289159.110543340386
289158.354872045689
289158.223890159745
289158.202927018923
289158.19980670244
289158.199372645933
299453.005296535848
298385.658648920245
296439.414921322546
293168.488093805208
290549.251254901465
289568.036017892824
289263.345754351642
289182.104568502516
289163.085420748335
289159.107817510143
289158.35444792331
289158.223830492352
289158.20291923784
289158.199805746379
289158.199372535164
299453.009381285054
298385.688857230591
296439.508410566486
293168.72503903188
290549.419484597631
289568.108308425115
289263.368205357285
289182.110121023376
289163.086589807644
289159.10803582269
289158.3544848889
289158.223836292047
289158.202920092095
289158.199805863434
289158.199372549658
299453.069575729955
298386.584760607744
296442.005108055077
293174.116358519939
290552.427145150199
289569.221662498545
289263.688687872491
289182.185020008299
289163.101452685718
289159.110619437357
289158.354881845822
289158.223891247879
289158.202927121369
289158.199806709075
289158.199372645759
299453.056504429027
298385.996358544682
296440.366630501871
293170.551514073799
290550.482708824042
289568.545126078068
289263.50771588448
289182.146675219759
289163.09473033133
289159.10960804869
289158.354755669832
289158.223878808436
289158.202926238941
289158.19980669237
289158.199372655014
299453.19967139262
298387.908494901145
296445.367346176878
293180.661989061802
290555.726889754646
289570.393071834231
289264.023024503374
289182.265452073247
289163.118251349777
289159.11374198331
289158.355407057505
289158.223971723695
289158.202938506729
289158.199808208039
289158.199372831441
299453.225833449338
298387.364301569178
296443.975086936785
293177.975266412017
290554.527032844373
289570.077925950114
289263.966892371944
289182.260811497748
289163.119126659178
289159.114189798362
289158.355528010521
289158.223997773021
289158.202943128999
289158.199808920093
289158.199372932664
299453.550001598313
298391.309961238352
296453.879348281596
293196.918559074344
290563.688112524222
289573.149035617418
289264.794955841964
289182.447975128598
289163.155755005952
289159.120592422376
289158.356539544649
289158.224142636929
289158.202962363255
289158.199811323255
289158.199373215553
299453.676841106033
298391.238878000702
296453.827303652535
293197.307736525545
290564.253298197873
289573.490655966336
289264.928877077706
289182.48784323188
289163.165568390454
289159.122594648157
289158.356897936377
289158.22420235601
289158.202971386607
289158.199812556035
289158.199373374751
299454.196860811906
298398.475326129585
296471.297714524844
293228.973029419663
290578.029540826625
289577.633302197326
289265.919880150002
289182.683342190518
289163.197869139723
289159.127143456542
289158.357433018973
289158.224247421836
289158.202972391504
289158.199812003411
289158.19937321305
299452.889193173032
298387.746441100666
296442.692062262446
293174.120198357559
290548.644757408649
289566.314042445971
289262.349071510602
289181.722972785705
289162.971855278884
289159.079706252087
289158.348418972106
289158.222686119261
289158.202722952701
289158.199774953478
289158.199367964931
299447.14146877639
298316.87629530445
296254.682202013093
292794.135782631347
290344.113457546977
289486.931734900922
289237.449676345743
289175.126934658387
289161.453551689337
289158.769038422324
289158.291041576536
289158.212994650588
289158.201212612505
289158.199556235049
289158.199335437384
289158.199311366712
289158.199307835137
289158.199307336123
289158.199307268835
289158.199307260162
289158.199307259056
289158.199307258998
289158.199307258939
289158.199307258939
289158.199307258939
289158.199307258939
289158.199307258939
289158.199307258939
289158.199307258939
289158.199307258939
289158.199307258939
289158.199307258939
289158.199307258939
289158.199307258939
289158.199307258939
289158.199307258939
289158.199307258939
289158.199307258939
289158.199307258939
289158.199307258939
289158.199307258939
289158.199307258939
289158.199307258939
289158.199307258939
289158.199307258939
289158.199307258939
289158.199307258939
289158.199307258939
289158.199307258939
289158.199307258939
289158.199307258939
289158.199307258939
289158.199307258939
289158.199307258939
289158.199307258939
289158.199307258939
289158.199307258939
289158.199307258939
289158.199307258939
289158.199307258939
289158.199307258939
289158.199307258939
289158.199307258939
289158.199307258939
289158.199307258939
289158.199307258939
289158.199307258939
289158.199307258939
289158.199307258939
289158.199307258939
289158.199307258939
289158.199307258939
289158.199307258939
289158.199307258939
289158.199307258939
289158.199307258939
289158.199307258939
289158.199307258939
289158.199307258939
289158.199307258939
289158.199307258939
289158.199307258939
289158.199307258939
289158.199307258939
289158.199307258939
289158.199307258939
289158.199307258939
289158.199307258939
289158.199307258939
289158.199307258939
289158.199315714708
289158.199308496318
289158.199307431816
289158.199307282106
289158.199307261966
289158.199307259289
289158.199307258998
289158.199307258939
289158.199307258939
289158.199307258939
289158.199307258939
289158.199307258939
289158.199307258939
289158.199307258939
289158.199307258939
289158.199307258939
289158.199307258939
289158.199307258939
289158.199307258939
289158.199307258939
289158.199307258939
289158.199307258939
289158.199307258939
289158.199307258939
289158.199307258939
289158.199307258939
289158.199307258939
289158.199307258939
289158.199307258939
289158.199307258939
289158.199307258939
289158.199307258939
289158.199307258939
289158.199307258939
289158.199307258939
289158.199307258939
289158.199307258939
289158.199307258939
289158.199307258939
289158.199307258939
289158.199307258939
289158.199307258939
289158.199307258939
289158.199307258939
289158.199307258939
289158.199307258939
289158.199307258939
289158.199307258939
289158.199307258939
289158.199307258939
289158.199307258939
289158.199307258939
289158.199307258939
289158.199307258939
289158.199307258939
289158.199307258939
289158.199307258939
289158.199307258939
289158.199307258939
289158.199307258939
289158.199307258939
289158.199307258939
289158.199307258939
289158.199307258939
289158.199307258939
289158.199307258939
289158.199307258939
289158.199307258939
289158.199307258939
289158.199307258939
289158.199307258939
289158.199307258939
289158.199307258939
289158.199307258939
289158.199307258939
289158.199316485145
289158.1993086164
289158.199307449569
289158.199307284609
289158.199307262257
289158.199307259347
289158.199307258998
289158.199307258939
289158.199307258939
289158.199307258939
289158.199307258939
289158.199307258939
289158.199307258939
289158.199307258939
289158.199307258939
289158.199307258939
289158.199307258939
289158.199307258939
289158.199307258939
289158.199307258939
289158.199307258939
289158.199307258939
289158.199307258939
289158.199307258939
289158.199307258939
289158.199307258939
289158.199307258939
289158.199307258939
289158.199307258939
289158.199307258939
289158.199307258939
289158.199307258939
289158.199307258939
289158.199307258939
289158.199307258939
289158.199307258939
289158.199307258939
289158.199307258939
289158.199307258939
289158.199307258939
289158.199307258939
289158.199307258939
289158.199307258939
289158.199307258939
289158.199307258939
289158.199307258939
289158.199307258939
289158.199307258939
289158.199307258939
289158.199307258939
289158.199307258939
289158.199307258939
289158.199307258939
289158.199307258939
289158.199307258939
289158.199307258939
289158.199307258939
289158.199307258939
289158.199307258939
289158.199307258939
289158.199307258939
289158.199307258939
289158.199307258939
289158.199307258939
289158.199307258939
289158.199307258939
289158.199307258939
289158.199307258939
289158.199307258939
289158.199307258939
289158.199307258939
289158.199307258939
289158.199307258939
289158.199307258939
289158.199307258939
289158.199316518498
289158.199308622687
289158.199307450675
289158.199307284784
289158.199307262315
289158.199307259347
289158.199307258998
289158.199307258939
289158.199307258939
289158.199307258939
289158.199307258939
289158.199307258939
289158.199307258939
289158.199307258939
289158.199307258939
289158.199307258939
289158.199307258939
289158.199307258939
289158.199307258939
289158.199307258939
289158.199307258939
289158.199307258939
289158.199307258939
289158.199307258939
289158.199307258939
289158.199307258939
289158.199307258939
289158.199307258939
289158.199307258939
289158.199307258939
289158.199307258939
289158.199307258939
289158.199307258939
289158.199307258939
289158.199307258939
289158.199307258939
289158.199307258939
289158.199307258939
289158.199307258939
289158.199307258939
289158.199307258939
289158.199307258939
289158.199307258939
289158.199307258939
289158.199307258939
289158.199307258939
289158.199307258939
289158.199307258939
289158.199307258939
289158.199307258939
289158.199307258939
289158.199307258939
289158.199307258939
289158.199307258939
289158.199307258939
289158.199307258939
289158.199307258939
289158.199307258939
289158.199307258939
289158.199307258939
289158.199307258939
289158.199307258939
289158.199307258939
289158.199307258939
289158.199307258939
289158.199307258939
289158.199307258939
289158.199307258939
289158.199307258939
289158.199307258939
289158.199307258939
289158.199307258939
289158.199307258939
289158.199307258939
289158.199307258939
289158.199316495971
289158.19930861966
289158.199307450326
289158.199307284667
289158.199307262315
289158.199307259347
289158.199307258998
289158.199307258939
289158.199307258939
289158.199307258939
289158.199307258939
289158.199307258939
289158.199307258939
289158.199307258939
289158.199307258939
289158.199307258939
289158.199307258939
289158.199307258939
289158.199307258939
289158.199307258939
289158.199307258939
289158.199307258939
289158.199307258939
289158.199307258939
289158.199307258939
289158.199307258939
289158.199307258939
289158.199307258939
289158.199307258939
289158.199307258939
289158.199307258939
289158.199307258939
289158.199307258939
289158.199307258939
289158.199307258939
289158.199307258939
289158.199307258939
289158.199307258939
289158.199307258939
289158.199307258939
289158.199307258939
289158.199307258939
289158.199307258939
289158.199307258939
289158.199307258939
289158.199307258939
289158.199307258939
289158.199307258939
289158.199307258939
289158.199307258939
289158.199307258939
289158.199307258939
289158.199307258939
289158.199307258939
289158.199307258939
289158.199307258939
289158.199307258939
289158.199307258939
289158.199307258939
289158.199307258939
289158.199307258939
289158.199307258939
289158.199307258939
289158.199307258939
289158.199307258939
289158.199307258939
289158.199307258939
289158.199307258939
289158.199307258939
289158.199307258939
289158.199307258939
289158.199307258939
289158.199307258939
289158.199307258939
289158.199307258939
289158.199316459009
289158.199308614538
289158.199307449628
289158.199307284609
289158.199307262257
289158.199307259347
289158.199307258998
289158.199307258939
289158.199307258939
289158.199307258939
289158.199307258939
289158.199307258939
289158.199307258939
289158.199307258939
289158.199307258939
289158.199307258939
289158.199307258939
289158.199307258939
289158.199307258939
289158.199307258939
289158.199307258939
289158.199307258939
289158.199307258939
289158.199307258939
289158.199307258939
289158.199307258939
289158.199307258939
289158.199307258939
289158.199307258939
289158.199307258939
289158.199307258939
289158.199307258939
289158.199307258939
289158.199307258939
289158.199307258939
289158.199307258939
289158.199307258939
289158.199307258939
289158.199307258939
289158.199307258939
289158.199307258939
289158.199307258939
289158.199307258939
289158.199307258939
289158.199307258939
289158.199307258939
289158.199307258939
289158.199307258939
289158.199307258939
289158.199307258939
289158.199307258939
289158.199307258939
289158.199307258939
289158.199307258939
289158.199307258939
289158.199307258939
289158.199307258939
289158.199307258939
289158.199307258939
289158.199307258939
289158.199307258939
289158.199307258939
289158.199307258939
289158.199307258939
289158.199307258939
289158.199307258939
289158.199307258939
289158.199307258939
289158.199307258939
289158.199307258939
289158.199307258939
289158.199307258939
289158.199307258939
289158.199307258939
289158.199307258939
289158.199316443875
289158.199308612442
289158.199307449278
289158.199307284551
289158.199307262257
289158.199307259347
289158.199307258998
289158.199307258939
289158.199307258939
289158.199307258939
289158.199307258939
289158.199307258939
289158.199307258939
289158.199307258939
289158.199307258939
289158.199307258939
289158.199307258939
289158.199307258939
289158.199307258939
289158.199307258939
289158.199307258939
289158.199307258939
289158.199307258939
289158.199307258939
289158.199307258939
289158.199307258939
289158.199307258939
289158.199307258939
289158.199307258939
289158.199307258939
289158.199307258939
289158.199307258939
289158.199307258939
289158.199307258939
289158.199307258939
289158.199307258939
289158.199307258939
289158.199307258939
289158.199307258939
289158.199307258939
289158.199307258939
289158.199307258939
289158.199307258939
289158.199307258939
289158.199307258939
289158.199307258939
289158.199307258939
289158.199307258939
289158.199307258939
289158.199307258939
289158.199307258939
289158.199307258939
289158.199307258939
289158.199307258939
289158.199307258939
289158.199307258939
289158.199307258939
289158.199307258939
289158.199307258939
289158.199307258939
289158.199307258939
289158.199307258939
289158.199307258939
289158.199307258939
289158.199307258939
289158.199307258939
289158.199307258939
289158.199307258939
289158.199307258939
289158.199307258939
289158.199307258939
289158.199307258939
289158.199307258939
289158.199307258939
289158.199307258939
289158.199316421
289158.199308609299
289158.199307448871
289158.199307284551
289158.199307262257
289158.199307259347
289158.199307258998
289158.199307258939
289158.199307258939
289158.199307258939
289158.199307258939
289158.199307258939
289158.199307258939
289158.199307258939
289158.199307258939
289158.199307258939
289158.199307258939
289158.199307258939
289158.199307258939
289158.199307258939
289158.199307258939
289158.199307258939
289158.199307258939
289158.199307258939
289158.199307258939
289158.199307258939
289158.199307258939
289158.199307258939
289158.199307258939
289158.199307258939
289158.199307258939
289158.199307258939
289158.199307258939
289158.199307258939
289158.199307258939
289158.199307258939
289158.199307258939
289158.199307258939
289158.199307258939
289158.199307258939
289158.199307258939
289158.199307258939
289158.199307258939
289158.199307258939
289158.199307258939
289158.199307258939
289158.199307258939
289158.199307258939
289158.199307258939
289158.199307258939
289158.199307258939
289158.199307258939
289158.199307258939
289158.199307258939
289158.199307258939
289158.199307258939
289158.199307258939
289158.199307258939
289158.199307258939
289158.199307258939
289158.199307258939
289158.199307258939
289158.199307258939
289158.199307258939
289158.199307258939
289158.199307258939
289158.199307258939
289158.199307258939
289158.199307258939
289158.199307258939
289158.199307258939
289158.199307258939
289158.199307258939
289158.199307258939
289158.199307258939
289158.199316417857
289158.199308608775
289158.199307448755
289158.199307284493
289158.199307262257
289158.199307259347
289158.199307258998
289158.199307258939
289158.199307258939
289158.199307258939
289158.199307258939
289158.199307258939
289158.199307258939
289158.199307258939
289158.199307258939
289158.199307258939
289158.199307258939
289158.199307258939
289158.199307258939
289158.199307258939
289158.199307258939
289158.199307258939
289158.199307258939
289158.199307258939
289158.199307258939
289158.199307258939
289158.199307258939
289158.199307258939
289158.199307258939
289158.199307258939
289158.199307258939
289158.199307258939
289158.199307258939
289158.199307258939
289158.199307258939
289158.199307258939
289158.199307258939
289158.199307258939
289158.199307258939
289158.199307258939
289158.199307258939
289158.199307258939
289158.199307258939
289158.199307258939
289158.199307258939
289158.199307258939
289158.199307258939
289158.199307258939
289158.199307258939
289158.199307258939
289158.199307258939
289158.199307258939
289158.199307258939
289158.199307258939
289158.199307258939
289158.199307258939
289158.199307258939
289158.199307258939
289158.199307258939
289158.199307258939
289158.199307258939
289158.199307258939
289158.199307258939
289158.199307258939
289158.199307258939
289158.199307258939
289158.199307258939
289158.199307258939
289158.199307258939
289158.199307258939
289158.199307258939
289158.199307258939
289158.199307258939
289158.199307258939
289158.199307258939
289158.199316404061
289158.199308606912
289158.19930744858
289158.199307284493
289158.199307262257
289158.199307259347
289158.199307258998
289158.199307258939
289158.199307258939
289158.199307258939
289158.199307258939
289158.199307258939
289158.199307258939
289158.199307258939
289158.199307258939
289158.199307258939
289158.199307258939
289158.199307258939
289158.199307258939
289158.199307258939
289158.199307258939
289158.199307258939
289158.199307258939
289158.199307258939
289158.199307258939
289158.199307258939
289158.199307258939
289158.199307258939
289158.199307258939
289158.199307258939
289158.199307258939
289158.199307258939
289158.199307258939
289158.199307258939
289158.199307258939
289158.199307258939
289158.199307258939
289158.199307258939
289158.199307258939
289158.199307258939
289158.199307258939
289158.199307258939
289158.199307258939
289158.199307258939
289158.199307258939
289158.199307258939
289158.199307258939
289158.199307258939
289158.199307258939
289158.199307258939
289158.199307258939
289158.199307258939
289158.199307258939
289158.199307258939
289158.199307258939
289158.199307258939
289158.199307258939
289158.199307258939
289158.199307258939
289158.199307258939
289158.199307258939
289158.199307258939
289158.199307258939
289158.199307258939
289158.199307258939
289158.199307258939
289158.199307258939
289158.199307258939
289158.199307258939
289158.199307258939
289158.199307258939
289158.199307258939
289158.199307258939
289158.199307258939
289158.199307258939
289158.199316405866
289158.199308607145
289158.19930744858
289158.199307284493
289158.199307262257
289158.199307259347
289158.199307258998
289158.199307258939
289158.199307258939
289158.199307258939
289158.199307258939
289158.199307258939
289158.199307258939
289158.199307258939
289158.199307258939
289158.199307258939
289158.199307258939
289158.199307258939
289158.199307258939
289158.199307258939
289158.199307258939
289158.199307258939
289158.199307258939
289158.199307258939
289158.199307258939
289158.199307258939
289158.199307258939
289158.199307258939
289158.199307258939
289158.199307258939
289158.199307258939
289158.199307258939
289158.199307258939
289158.199307258939
289158.199307258939
289158.199307258939
289158.199307258939
289158.199307258939
289158.199307258939
289158.199307258939
289158.199307258939
289158.199307258939
289158.199307258939
289158.199307258939
289158.199307258939
289158.199307258939
289158.199307258939
289158.199307258939
289158.199307258939
289158.199307258939
289158.199307258939
289158.199307258939
289158.199307258939
289158.199307258939
289158.199307258939
289158.199307258939
289158.199307258939
289158.199307258939
289158.199307258939
289158.199307258939
289158.199307258939
289158.199307258939
289158.199307258939
289158.199307258939
289158.199307258939
289158.199307258939
289158.199307258939
289158.199307258939
289158.199307258939
289158.199307258939
289158.199307258939
289158.199307258939
289158.199307258939
289158.199307258939
289158.199307258939
289158.199316417624
289158.199308608717
289158.199307448755
289158.199307284493
289158.199307262257
289158.199307259347
289158.199307258998
289158.199307258939
289158.199307258939
289158.199307258939
289158.199307258939
289158.199307258939
289158.199307258939
289158.199307258939
289158.199307258939
289158.199307258939
289158.199307258939
289158.199307258939
289158.199307258939
289158.199307258939
289158.199307258939
289158.199307258939
289158.199307258939
289158.199307258939
289158.199307258939
289158.199307258939
289158.199307258939
289158.199307258939
289158.199307258939
289158.199307258939
289158.199307258939
289158.199307258939
289158.199307258939
289158.199307258939
289158.199307258939
289158.199307258939
289158.199307258939
289158.199307258939
289158.199307258939
289158.199307258939
289158.199307258939
289158.199307258939
289158.199307258939
289158.199307258939
289158.199307258939
289158.199307258939
289158.199307258939
289158.199307258939
289158.199307258939
289158.199307258939
289158.199307258939
289158.199307258939
289158.199307258939
289158.199307258939
289158.199307258939
289158.199307258939
289158.199307258939
289158.199307258939
289158.199307258939
289158.199307258939
289158.199307258939
289158.199307258939
289158.199307258939
289158.199307258939
289158.199307258939
289158.199307258939
289158.199307258939
289158.199307258939
289158.199307258939
289158.199307258939
289158.199307258939
289158.199307258939
289158.199307258939
289158.199307258939
289158.199307258939
289158.199316419952
289158.199308609066
289158.199307448813
289158.199307284551
289158.199307262257
289158.199307259347
289158.199307258998
289158.199307258939
289158.199307258939
289158.199307258939
289158.199307258939
289158.199307258939
289158.199307258939
289158.199307258939
289158.199307258939
289158.199307258939
289158.199307258939
289158.199307258939
289158.199307258939
289158.199307258939
289158.199307258939
289158.199307258939
289158.199307258939
289158.199307258939
289158.199307258939
289158.199307258939
289158.199307258939
289158.199307258939
289158.199307258939
289158.199307258939
289158.199307258939
289158.199307258939
289158.199307258939
289158.199307258939
289158.199307258939
289158.199307258939
289158.199307258939
289158.199307258939
289158.199307258939
289158.199307258939
289158.199307258939
289158.199307258939
289158.199307258939
289158.199307258939
289158.199307258939
289158.199307258939
289158.199307258939
289158.199307258939
289158.199307258939
289158.199307258939
289158.199307258939
289158.199307258939
289158.199307258939
289158.199307258939
289158.199307258939
289158.199307258939
289158.199307258939
289158.199307258939
289158.199307258939
289158.199307258939
289158.199307258939
289158.199307258939
289158.199307258939
289158.199307258939
289158.199307258939
289158.199307258939
289158.199307258939
289158.199307258939
289158.199307258939
289158.199307258939
289158.199307258939
289158.199307258939
289158.199307258939
289158.199307258939
289158.199307258939
289158.199316442304
289158.199308612151
289158.19930744922
289158.199307284551
289158.199307262257
289158.199307259347
289158.199307258998
289158.199307258939
289158.199307258939
289158.199307258939
289158.199307258939
289158.199307258939
289158.199307258939
289158.199307258939
289158.199307258939
289158.199307258939
289158.199307258939
289158.199307258939
289158.199307258939
289158.199307258939
289158.199307258939
289158.199307258939
289158.199307258939
289158.199307258939
289158.199307258939
289158.199307258939
289158.199307258939
289158.199307258939
289158.199307258939
289158.199307258939
289158.199307258939
289158.199307258939
289158.199307258939
289158.199307258939
289158.199307258939
289158.199307258939
289158.199307258939
289158.199307258939
289158.199307258939
289158.199307258939
289158.199307258939
289158.199307258939
289158.199307258939
289158.199307258939
289158.199307258939
289158.199307258939
289158.199307258939
289158.199307258939
289158.199307258939
289158.199307258939
289158.199307258939
289158.199307258939
289158.199307258939
289158.199307258939
289158.199307258939
289158.199307258939
289158.199307258939
289158.199307258939
289158.199307258939
289158.199307258939
289158.199307258939
289158.199307258939
289158.199307258939
289158.199307258939
289158.199307258939
289158.199307258939
289158.199307258939
289158.199307258939
289158.199307258939
289158.199307258939
289158.199307258939
289158.199307258939
289158.199307258939
289158.199307258939
289158.199307258939
289158.199316456914
289158.199308614188
289158.199307449569
289158.199307284609
289158.199307262257
289158.199307259347
289158.199307258998
289158.199307258939
289158.199307258939
289158.199307258939
289158.199307258939
289158.199307258939
289158.199307258939
289158.199307258939
289158.199307258939
289158.199307258939
289158.199307258939
289158.199307258939
289158.199307258939
289158.199307258939
289158.199307258939
289158.199307258939
289158.199307258939
289158.199307258939
289158.199307258939
289158.199307258939
289158.199307258939
289158.199307258939
289158.199307258939
289158.199307258939
289158.199307258939
289158.199307258939
289158.199307258939
289158.199307258939
289158.199307258939
289158.199307258939
289158.199307258939
289158.199307258939
289158.199307258939
289158.199307258939
289158.199307258939
289158.199307258939
289158.199307258939
289158.199307258939
289158.199307258939
289158.199307258939
289158.199307258939
289158.199307258939
289158.199307258939
289158.199307258939
289158.199307258939
289158.199307258939
289158.199307258939
289158.199307258939
289158.199307258939
289158.199307258939
289158.199307258939
289158.199307258939
289158.199307258939
289158.199307258939
289158.199307258939
289158.199307258939
289158.199307258939
289158.199307258939
289158.199307258939
289158.199307258939
289158.199307258939
289158.199307258939
289158.199307258939
289158.199307258939
289158.199307258939
289158.199307258939
289158.199307258939
289158.199307258939
289158.199307258939
289158.199316492886
289158.199308619252
289158.19930745021
289158.199307284667
289158.199307262315
289158.199307259347
289158.199307258998
289158.199307258939
289158.199307258939
289158.199307258939
289158.199307258939
289158.199307258939
289158.199307258939
289158.199307258939
289158.199307258939
289158.199307258939
289158.199307258939
289158.199307258939
289158.199307258939
289158.199307258939
289158.199307258939
289158.199307258939
289158.199307258939
289158.199307258939
289158.199307258939
289158.199307258939
289158.199307258939
289158.199307258939
289158.199307258939
289158.199307258939
289158.199307258939
289158.199307258939
289158.199307258939
289158.199307258939
289158.199307258939
289158.199307258939
289158.199307258939
289158.199307258939
289158.199307258939
289158.199307258939
289158.199307258939
289158.199307258939
289158.199307258939