/*--------------------------------*- C++ -*----------------------------------*\
  =========                 |
  \\      /  F ield         | OpenFOAM: The Open Source CFD Toolbox
   \\    /   O peration     | Website:  https://openfoam.org
    \\  /    A nd           | Version:  9
     \\/     M anipulation  |
\*---------------------------------------------------------------------------*/
FoamFile
{
    format      ascii;
    class       volScalarField;
    location    "0.01";
    object      gas::lambda;
}
// * * * * * * * * * * * * * * * * * * * * * * * * * * * * * * * * * * * * * //

dimensions      [1 1 -3 -1 0 0 0];

internalField   uniform 0;

boundaryField
{
    reactingWall
    {
        type            calculated;
        value           nonuniform List<scalar> 
75
(
6.9478909966175096e-310
6.9478909966175096e-310
4.64668204601470156e-310
4.64668204601470156e-310
0
0
0
0
0
0
0
0
0
0
0
0
0
0
0
0
0
0
0
0
0
0
0
0
0
0
0
0
0
0
0
0
0
0
0
0
0
0
0
0
0
0
0
0
0
0
0
0
0
0
0
0
0
0
0
0
0
0
0
0
0
0
0
0
0
0
0
0
0
0
0
)
;
    }
    inertWall
    {
        type            calculated;
        value           uniform 0;
    }
    inlet
    {
        type            calculated;
        value           nonuniform List<scalar> 
20
(
6.9478909965708698e-310
6.9478909965708698e-310
3.45202059098807451e+175
1.09456941716340459e+189
5.93469198501932046e+169
7.16395186469807489e-322
4.64668204698465124e-310
4.64668204384318423e-310
4.64668204666686821e-310
6.19588662540586515e+223
2.44944918443303226e-312
2.42092166462210807e-322
4.64668204698465124e-310
6.94789099656217424e-310
1.31043554692387292e-306
1.09462306535869865e+189
4.74303020007596682e-322
2.37151510003798341e-322
4.64668204384318423e-310
4.94065645841246544e-323
)
;
    }
    outlet
    {
        type            calculated;
        value           nonuniform List<scalar> 
20
(
6.9478909965716603e-310
4.64668204676568134e-310
0
4.64668204684828912e-310
4.4465908125712189e-323
1.16760679739359484e+214
3.42975465429904384e+161
6.07857796024791531e+247
6.9478921609590925e-310
4.64668204697753669e-310
4.84184332924421613e-322
4.84184332924421613e-322
2.15294902544575877e-312
4.64668204705935396e-310
4.64668204705935396e-310
0
2.71615461243554856e-312
4.64668204677674841e-310
4.64668204667714478e-310
0
)
;
    }
    defaultFaces
    {
        type            empty;
    }
}


// ************************************************************************* //
