/*--------------------------------*- C++ -*----------------------------------*\
  =========                 |
  \\      /  F ield         | OpenFOAM: The Open Source CFD Toolbox
   \\    /   O peration     | Website:  https://openfoam.org
    \\  /    A nd           | Version:  9
     \\/     M anipulation  |
\*---------------------------------------------------------------------------*/
FoamFile
{
    format      ascii;
    class       volScalarField;
    location    "0.01";
    object      gas::Cp;
}
// * * * * * * * * * * * * * * * * * * * * * * * * * * * * * * * * * * * * * //

dimensions      [0 2 -2 -1 0 0 0];

internalField   uniform 0;

boundaryField
{
    reactingWall
    {
        type            calculated;
        value           nonuniform List<scalar> 
75
(
6.94789099660090899e-310
6.94789099660090899e-310
0
0
0
0
0
0
0
0
0
0
0
0
0
0
0
0
0
0
0
0
0
0
0
0
0
0
0
0
0
0
0
0
0
0
0
0
0
0
0
0
0
0
0
0
0
0
0
0
0
0
0
0
0
0
0
0
0
0
0
0
0
0
0
0
0
0
0
0
0
0
0
0
0
)
;
    }
    inertWall
    {
        type            calculated;
        value           uniform 0;
    }
    inlet
    {
        type            calculated;
        value           nonuniform List<scalar> 
20
(
6.9478909965716603e-310
4.64668204693484942e-310
0
4.64668204332263667e-310
2.47032822920623272e-323
7.54846107380266148e+170
3.42975465431321808e+161
6.07857796024791531e+247
6.9478921609590925e-310
4.64668204687872356e-310
4.64421707090771752e-322
4.64421707090771752e-322
9.54082888692748166e-307
4.6466820467668671e-310
4.6466820467668671e-310
0
2.71615461243554856e-312
4.64668204700757588e-310
4.64668204667714478e-310
0
)
;
    }
    outlet
    {
        type            calculated;
        value           nonuniform List<scalar> 
20
(
6.9478909965716603e-310
4.64668204667319225e-310
0
4.64668204693761619e-310
2.96439387504747927e-323
7.76241451413894914e+168
3.42975465431321808e+161
6.07857796024791531e+247
6.9478921609590925e-310
4.64668204695698356e-310
4.69362363549184217e-322
4.69362363549184217e-322
8.40995712837016135e-315
4.64668204708544063e-310
4.64668204708544063e-310
0
2.71615461243554856e-312
4.6466820468842571e-310
4.64668204667714478e-310
0
)
;
    }
    defaultFaces
    {
        type            empty;
    }
}


// ************************************************************************* //
