/*--------------------------------*- C++ -*----------------------------------*\
  =========                 |
  \\      /  F ield         | OpenFOAM: The Open Source CFD Toolbox
   \\    /   O peration     | Website:  https://openfoam.org
    \\  /    A nd           | Version:  9
     \\/     M anipulation  |
\*---------------------------------------------------------------------------*/
FoamFile
{
    format      ascii;
    class       volScalarField;
    location    "0.01";
    object      gas::mu;
}
// * * * * * * * * * * * * * * * * * * * * * * * * * * * * * * * * * * * * * //

dimensions      [1 -1 -1 0 0 0 0];

internalField   nonuniform List<scalar> 
1800
(
2.86402409288060637e-05
2.86387816211010462e-05
2.8635716573496889e-05
2.86302116594923912e-05
2.86268342348827968e-05
2.86259563795510926e-05
2.86257872108620733e-05
2.8625764861616396e-05
2.86257638911732352e-05
2.86257643898167065e-05
2.86257645881508027e-05
2.86257646365227469e-05
2.86257646459878894e-05
2.86257646475915905e-05
2.86257646478348515e-05
2.86402450141700824e-05
2.86389124149540419e-05
2.86361579084250053e-05
2.86310271695563835e-05
2.86272237058789814e-05
2.86260814311916576e-05
2.86258180067931319e-05
2.86257709074452556e-05
2.8625764835609757e-05
2.86257644994640441e-05
2.8625764594331968e-05
2.86257646354000962e-05
2.86257646455052805e-05
2.86257646474809612e-05
2.86257646478147193e-05
2.86402436092222419e-05
2.86389082908415253e-05
2.86361468331985489e-05
2.86310364882138354e-05
2.86272199961267765e-05
2.86260765924492612e-05
2.862581559579438e-05
2.86257700652531016e-05
2.86257646001604186e-05
2.86257644435133302e-05
2.86257645826563235e-05
2.8625764633214121e-05
2.86257646451328402e-05
2.86257646474225599e-05
2.86257646478061575e-05
2.86402427269290817e-05
2.86388913224100808e-05
2.86360938574708218e-05
2.86309506572336066e-05
2.86271835361760462e-05
2.86260660710872576e-05
2.86258131492923506e-05
2.86257695759454987e-05
2.86257645122171755e-05
2.86257644288113353e-05
2.86257645803231374e-05
2.86257646328582553e-05
2.86257646450803648e-05
2.86257646474151162e-05
2.86257646478051342e-05
2.86402428708913977e-05
2.86388948848339726e-05
2.86361048388292123e-05
2.86309643313594845e-05
2.86271894717421107e-05
2.86260678381095398e-05
2.86258135792724547e-05
2.86257696677892168e-05
2.86257645298908499e-05
2.86257644319710901e-05
2.86257645808477591e-05
2.86257646329397534e-05
2.862576464509223e-05
2.86257646474167256e-05
2.86257646478053375e-05
2.86402426772372534e-05
2.86388877515619518e-05
2.86360818215809521e-05
2.86309231928058748e-05
2.86271714801971503e-05
2.86260627108964699e-05
2.86258124557273298e-05
2.86257694698314235e-05
2.86257645014091198e-05
2.86257644286671263e-05
2.8625764580570078e-05
2.86257646329319675e-05
2.86257646450951743e-05
2.86257646474175625e-05
2.862576464780549e-05
2.86402427707134412e-05
2.8638890394184926e-05
2.86360903264213049e-05
2.86309363861282317e-05
2.86271776846599361e-05
2.8626064613373974e-05
2.86258129195226561e-05
2.86257695656682345e-05
2.86257645190186671e-05
2.86257644316597275e-05
2.86257645810473845e-05
2.86257646330044668e-05
2.86257646451056809e-05
2.86257646474190092e-05
2.86257646478056797e-05
2.86402426882321917e-05
2.86388868241438567e-05
2.86360784318424839e-05
2.86309139256406468e-05
2.86271671234076917e-05
2.86260614335396756e-05
2.86258121901688738e-05
2.86257694319961795e-05
2.86257644989698038e-05
2.86257644291998727e-05
2.86257645808149654e-05
2.862576463299168e-05
2.86257646451065245e-05
2.86257646474194124e-05
2.8625764647805761e-05
2.86402427274635493e-05
2.86388885189046502e-05
2.86360842303171434e-05
2.86309246357606088e-05
2.8627172584922267e-05
2.8626063182608156e-05
2.86258126212070101e-05
2.86257695187905513e-05
2.86257645140072881e-05
2.8625764431534265e-05
2.86257645811485473e-05
2.86257646330369386e-05
2.86257646451124639e-05
2.86257646474201645e-05
2.86257646478058525e-05
2.86402427012473883e-05
2.86388868782467004e-05
2.86360784370933055e-05
2.86309126317763323e-05
2.86271664238339852e-05
2.86260612172278439e-05
2.86258121530593304e-05
2.86257694309998249e-05
2.86257645005785362e-05
2.86257644298437567e-05
2.86257645809790526e-05
2.86257646330251276e-05
2.86257646451124097e-05
2.86257646474203373e-05
2.86257646478058932e-05
2.86402427062153551e-05
2.86388869251689105e-05
2.86360786342752031e-05
2.86309131519693959e-05
2.86271667651941786e-05
2.86260613441485346e-05
2.86258121861856946e-05
2.86257694377575452e-05
2.86257645017243549e-05
2.86257644300092262e-05
2.86257645809992662e-05
2.86257646330271029e-05
2.86257646451125317e-05
2.86257646474203306e-05
2.86257646478058864e-05
2.86402427407879976e-05
2.86388886130533855e-05
2.86360845263469287e-05
2.86309251708248333e-05
2.8627172850421258e-05
2.86260632635463588e-05
2.86258126388456005e-05
2.86257695217310871e-05
2.86257645143950327e-05
2.86257644315751869e-05
2.86257645811519117e-05
2.86257646330371351e-05
2.86257646451124707e-05
2.86257646474201612e-05
2.86257646478058525e-05
2.86402426832681348e-05
2.86388867839115434e-05
2.86360782899092726e-05
2.86309136577928843e-05
2.86271669460900619e-05
2.86260613667256998e-05
2.86258121726737945e-05
2.86257694284413076e-05
2.86257644983695522e-05
2.86257644291129061e-05
2.86257645808043504e-05
2.8625764632990694e-05
2.8625764645106494e-05
2.86257646474194225e-05
2.8625764647805761e-05
2.8640242774136159e-05
2.86388904340043615e-05
2.86360904685979026e-05
2.86309366576468385e-05
2.8627177823892288e-05
2.86260646547612812e-05
2.86258129281072639e-05
2.86257695671251108e-05
2.86257645192692059e-05
2.86257644317090554e-05
2.86257645810575658e-05
2.86257646330064793e-05
2.8625764645106057e-05
2.86257646474190736e-05
2.86257646478056899e-05
2.86402426714221995e-05
2.86388877079898214e-05
2.86360816775766436e-05
2.86309229220516306e-05
2.86271713472253985e-05
2.86260626712191732e-05
2.86258124469681452e-05
2.86257694683569662e-05
2.86257645012420239e-05
2.86257644286646224e-05
2.86257645805750281e-05
2.86257646329336887e-05
2.86257646450955809e-05
2.8625764647417637e-05
2.86257646478055035e-05
2.86402428711112807e-05
2.86388948785489034e-05
2.86361048118599747e-05
2.8630964221470651e-05
2.86271893995785018e-05
2.86260678118653624e-05
2.86258135727980331e-05
2.86257696667336071e-05
2.86257645298175003e-05
2.86257644319929571e-05
2.86257645808587841e-05
2.86257646329427757e-05
2.86257646450928839e-05
2.86257646474168476e-05
2.86257646478053579e-05
2.86402427220570667e-05
2.86388912795602324e-05
2.86360937117655085e-05
2.86309503205171155e-05
2.86271833295625892e-05
2.86260659948825494e-05
2.86258131298123919e-05
2.86257695723955802e-05
2.86257645117956444e-05
2.86257644288018519e-05
2.86257645803341997e-05
2.86257646328620771e-05
2.86257646450812355e-05
2.86257646474152721e-05
2.8625764647805158e-05
2.86402436039297971e-05
2.86389082545777307e-05
2.86361467251563387e-05
2.8631036201950323e-05
2.86272198437794001e-05
2.86260765389420239e-05
2.86258155821859961e-05
2.86257700629615014e-05
2.86257646000017084e-05
2.86257644435601407e-05
2.862576458267898e-05
2.86257646332200265e-05
2.86257646451340429e-05
2.86257646474227666e-05
2.86257646478061947e-05
2.86402449927056034e-05
2.86389122421833323e-05
2.86361573477794405e-05
2.8631025958850213e-05
2.86272230930102846e-05
2.86260812351582554e-05
2.86258179605267117e-05
2.86257708990310912e-05
2.86257648344493253e-05
2.86257644993617056e-05
2.86257645943337908e-05
2.8625764635403237e-05
2.86257646455061242e-05
2.86257646474811001e-05
2.86257646478148751e-05
2.86402409184158223e-05
2.86387813789773254e-05
2.86357157371973772e-05
2.86302101025374072e-05
2.86268336037634944e-05
2.86259562189012416e-05
2.86257871825701259e-05
2.86257648583567489e-05
2.86257638910766497e-05
2.86257643898839643e-05
2.86257645881737268e-05
2.86257646365278189e-05
2.86257646459888178e-05
2.86257646475915295e-05
2.86257646478381075e-05
2.86257646478680722e-05
2.86257646478729274e-05
2.86257646478736761e-05
2.86257646478737812e-05
2.86257646478737947e-05
2.86257646478737981e-05
2.86257646478737981e-05
2.86257646478737981e-05
2.86257646478737981e-05
2.86257646478737981e-05
2.86257646478737981e-05
2.86257646478737981e-05
2.86257646478737981e-05
2.86257646478737981e-05
2.86257646478737981e-05
2.86257646478737981e-05
2.86257646478737981e-05
2.86257646478737981e-05
2.86257646478737981e-05
2.86257646478737981e-05
2.86257646478737981e-05
2.86257646478737981e-05
2.86257646478737981e-05
2.86257646478737981e-05
2.86257646478737981e-05
2.86257646478737981e-05
2.86257646478737981e-05
2.86257646478737981e-05
2.86257646478737981e-05
2.86257646478737981e-05
2.86257646478737981e-05
2.86257646478737981e-05
2.86257646478737981e-05
2.86257646478737981e-05
2.86257646478737981e-05
2.86257646478737981e-05
2.86257646478737981e-05
2.86257646478737981e-05
2.86257646478737981e-05
2.86257646478737981e-05
2.86257646478737981e-05
2.86257646478737981e-05
2.86257646478737981e-05
2.86257646478737981e-05
2.86257646478737981e-05
2.86257646478737981e-05
2.86257646478737981e-05
2.86257646478737981e-05
2.86257646478737981e-05
2.86257646478737981e-05
2.86257646478737981e-05
2.86257646478737981e-05
2.86257646478737981e-05
2.86257646478737981e-05
2.86257646478737981e-05
2.86257646478737981e-05
2.86257646478737981e-05
2.86257646478737981e-05
2.86257646478737981e-05
2.86257646478737981e-05
2.86257646478737981e-05
2.86257646478737981e-05
2.86257646478737981e-05
2.86257646478737981e-05
2.86257646478737981e-05
2.86257646478737981e-05
2.86257646478737981e-05
2.86257646478737981e-05
2.86257646478737981e-05
2.86257646478737981e-05
2.86257646478737981e-05
2.86257646478737981e-05
2.86257646478737981e-05
2.86257646478737981e-05
2.86257646478737981e-05
2.86257646478644028e-05
2.86257646478722701e-05
2.86257646478735643e-05
2.86257646478737642e-05
2.86257646478737913e-05
2.86257646478737947e-05
2.86257646478737981e-05
2.86257646478737981e-05
2.86257646478737981e-05
2.86257646478737981e-05
2.86257646478737981e-05
2.86257646478737981e-05
2.86257646478737981e-05
2.86257646478737981e-05
2.86257646478737981e-05
2.86257646478737981e-05
2.86257646478737981e-05
2.86257646478737981e-05
2.86257646478737981e-05
2.86257646478737981e-05
2.86257646478737981e-05
2.86257646478737981e-05
2.86257646478737981e-05
2.86257646478737981e-05
2.86257646478737981e-05
2.86257646478737981e-05
2.86257646478737981e-05
2.86257646478737981e-05
2.86257646478737981e-05
2.86257646478737981e-05
2.86257646478737981e-05
2.86257646478737981e-05
2.86257646478737981e-05
2.86257646478737981e-05
2.86257646478737981e-05
2.86257646478737981e-05
2.86257646478737981e-05
2.86257646478737981e-05
2.86257646478737981e-05
2.86257646478737981e-05
2.86257646478737981e-05
2.86257646478737981e-05
2.86257646478737981e-05
2.86257646478737981e-05
2.86257646478737981e-05
2.86257646478737981e-05
2.86257646478737981e-05
2.86257646478737981e-05
2.86257646478737981e-05
2.86257646478737981e-05
2.86257646478737981e-05
2.86257646478737981e-05
2.86257646478737981e-05
2.86257646478737981e-05
2.86257646478737981e-05
2.86257646478737981e-05
2.86257646478737981e-05
2.86257646478737981e-05
2.86257646478737981e-05
2.86257646478737981e-05
2.86257646478737981e-05
2.86257646478737981e-05
2.86257646478737981e-05
2.86257646478737981e-05
2.86257646478737981e-05
2.86257646478737981e-05
2.86257646478737981e-05
2.86257646478737981e-05
2.86257646478737981e-05
2.86257646478737981e-05
2.86257646478737981e-05
2.86257646478737981e-05
2.86257646478737981e-05
2.86257646478737981e-05
2.86257646478737981e-05
2.86257646478630815e-05
2.86257646478720498e-05
2.86257646478735305e-05
2.86257646478737608e-05
2.86257646478737913e-05
2.86257646478737947e-05
2.86257646478737981e-05
2.86257646478737981e-05
2.86257646478737981e-05
2.86257646478737981e-05
2.86257646478737981e-05
2.86257646478737981e-05
2.86257646478737981e-05
2.86257646478737981e-05
2.86257646478737981e-05
2.86257646478737981e-05
2.86257646478737981e-05
2.86257646478737981e-05
2.86257646478737981e-05
2.86257646478737981e-05
2.86257646478737981e-05
2.86257646478737981e-05
2.86257646478737981e-05
2.86257646478737981e-05
2.86257646478737981e-05
2.86257646478737981e-05
2.86257646478737981e-05
2.86257646478737981e-05
2.86257646478737981e-05
2.86257646478737981e-05
2.86257646478737981e-05
2.86257646478737981e-05
2.86257646478737981e-05
2.86257646478737981e-05
2.86257646478737981e-05
2.86257646478737981e-05
2.86257646478737981e-05
2.86257646478737981e-05
2.86257646478737981e-05
2.86257646478737981e-05
2.86257646478737981e-05
2.86257646478737981e-05
2.86257646478737981e-05
2.86257646478737981e-05
2.86257646478737981e-05
2.86257646478737981e-05
2.86257646478737981e-05
2.86257646478737981e-05
2.86257646478737981e-05
2.86257646478737981e-05
2.86257646478737981e-05
2.86257646478737981e-05
2.86257646478737981e-05
2.86257646478737981e-05
2.86257646478737981e-05
2.86257646478737981e-05
2.86257646478737981e-05
2.86257646478737981e-05
2.86257646478737981e-05
2.86257646478737981e-05
2.86257646478737981e-05
2.86257646478737981e-05
2.86257646478737981e-05
2.86257646478737981e-05
2.86257646478737981e-05
2.86257646478737981e-05
2.86257646478737981e-05
2.86257646478737981e-05
2.86257646478737981e-05
2.86257646478737981e-05
2.86257646478737981e-05
2.86257646478737981e-05
2.86257646478737981e-05
2.86257646478737981e-05
2.86257646478737981e-05
2.86257646478629222e-05
2.86257646478720295e-05
2.86257646478735237e-05
2.86257646478737608e-05
2.86257646478737913e-05
2.86257646478737947e-05
2.86257646478737981e-05
2.86257646478737981e-05
2.86257646478737981e-05
2.86257646478737981e-05
2.86257646478737981e-05
2.86257646478737981e-05
2.86257646478737981e-05
2.86257646478737981e-05
2.86257646478737981e-05
2.86257646478737981e-05
2.86257646478737981e-05
2.86257646478737981e-05
2.86257646478737981e-05
2.86257646478737981e-05
2.86257646478737981e-05
2.86257646478737981e-05
2.86257646478737981e-05
2.86257646478737981e-05
2.86257646478737981e-05
2.86257646478737981e-05
2.86257646478737981e-05
2.86257646478737981e-05
2.86257646478737981e-05
2.86257646478737981e-05
2.86257646478737981e-05
2.86257646478737981e-05
2.86257646478737981e-05
2.86257646478737981e-05
2.86257646478737981e-05
2.86257646478737981e-05
2.86257646478737981e-05
2.86257646478737981e-05
2.86257646478737981e-05
2.86257646478737981e-05
2.86257646478737981e-05
2.86257646478737981e-05
2.86257646478737981e-05
2.86257646478737981e-05
2.86257646478737981e-05
2.86257646478737981e-05
2.86257646478737981e-05
2.86257646478737981e-05
2.86257646478737981e-05
2.86257646478737981e-05
2.86257646478737981e-05
2.86257646478737981e-05
2.86257646478737981e-05
2.86257646478737981e-05
2.86257646478737981e-05
2.86257646478737981e-05
2.86257646478737981e-05
2.86257646478737981e-05
2.86257646478737981e-05
2.86257646478737981e-05
2.86257646478737981e-05
2.86257646478737981e-05
2.86257646478737981e-05
2.86257646478737981e-05
2.86257646478737981e-05
2.86257646478737981e-05
2.86257646478737981e-05
2.86257646478737981e-05
2.86257646478737981e-05
2.86257646478737981e-05
2.86257646478737981e-05
2.86257646478737981e-05
2.86257646478737981e-05
2.86257646478737981e-05
2.86257646478737981e-05
2.86257646478629493e-05
2.86257646478720363e-05
2.86257646478735271e-05
2.86257646478737608e-05
2.86257646478737913e-05
2.86257646478737947e-05
2.86257646478737981e-05
2.86257646478737981e-05
2.86257646478737981e-05
2.86257646478737981e-05
2.86257646478737981e-05
2.86257646478737981e-05
2.86257646478737981e-05
2.86257646478737981e-05
2.86257646478737981e-05
2.86257646478737981e-05
2.86257646478737981e-05
2.86257646478737981e-05
2.86257646478737981e-05
2.86257646478737981e-05
2.86257646478737981e-05
2.86257646478737981e-05
2.86257646478737981e-05
2.86257646478737981e-05
2.86257646478737981e-05
2.86257646478737981e-05
2.86257646478737981e-05
2.86257646478737981e-05
2.86257646478737981e-05
2.86257646478737981e-05
2.86257646478737981e-05
2.86257646478737981e-05
2.86257646478737981e-05
2.86257646478737981e-05
2.86257646478737981e-05
2.86257646478737981e-05
2.86257646478737981e-05
2.86257646478737981e-05
2.86257646478737981e-05
2.86257646478737981e-05
2.86257646478737981e-05
2.86257646478737981e-05
2.86257646478737981e-05
2.86257646478737981e-05
2.86257646478737981e-05
2.86257646478737981e-05
2.86257646478737981e-05
2.86257646478737981e-05
2.86257646478737981e-05
2.86257646478737981e-05
2.86257646478737981e-05
2.86257646478737981e-05
2.86257646478737981e-05
2.86257646478737981e-05
2.86257646478737981e-05
2.86257646478737981e-05
2.86257646478737981e-05
2.86257646478737981e-05
2.86257646478737981e-05
2.86257646478737981e-05
2.86257646478737981e-05
2.86257646478737981e-05
2.86257646478737981e-05
2.86257646478737981e-05
2.86257646478737981e-05
2.86257646478737981e-05
2.86257646478737981e-05
2.86257646478737981e-05
2.86257646478737981e-05
2.86257646478737981e-05
2.86257646478737981e-05
2.86257646478737981e-05
2.86257646478737981e-05
2.86257646478737981e-05
2.86257646478737981e-05
2.86257646478629798e-05
2.86257646478720363e-05
2.86257646478735271e-05
2.86257646478737608e-05
2.86257646478737913e-05
2.86257646478737947e-05
2.86257646478737981e-05
2.86257646478737981e-05
2.86257646478737981e-05
2.86257646478737981e-05
2.86257646478737981e-05
2.86257646478737981e-05
2.86257646478737981e-05
2.86257646478737981e-05
2.86257646478737981e-05
2.86257646478737981e-05
2.86257646478737981e-05
2.86257646478737981e-05
2.86257646478737981e-05
2.86257646478737981e-05
2.86257646478737981e-05
2.86257646478737981e-05
2.86257646478737981e-05
2.86257646478737981e-05
2.86257646478737981e-05
2.86257646478737981e-05
2.86257646478737981e-05
2.86257646478737981e-05
2.86257646478737981e-05
2.86257646478737981e-05
2.86257646478737981e-05
2.86257646478737981e-05
2.86257646478737981e-05
2.86257646478737981e-05
2.86257646478737981e-05
2.86257646478737981e-05
2.86257646478737981e-05
2.86257646478737981e-05
2.86257646478737981e-05
2.86257646478737981e-05
2.86257646478737981e-05
2.86257646478737981e-05
2.86257646478737981e-05
2.86257646478737981e-05
2.86257646478737981e-05
2.86257646478737981e-05
2.86257646478737981e-05
2.86257646478737981e-05
2.86257646478737981e-05
2.86257646478737981e-05
2.86257646478737981e-05
2.86257646478737981e-05
2.86257646478737981e-05
2.86257646478737981e-05
2.86257646478737981e-05
2.86257646478737981e-05
2.86257646478737981e-05
2.86257646478737981e-05
2.86257646478737981e-05
2.86257646478737981e-05
2.86257646478737981e-05
2.86257646478737981e-05
2.86257646478737981e-05
2.86257646478737981e-05
2.86257646478737981e-05
2.86257646478737981e-05
2.86257646478737981e-05
2.86257646478737981e-05
2.86257646478737981e-05
2.86257646478737981e-05
2.86257646478737981e-05
2.86257646478737981e-05
2.86257646478737981e-05
2.86257646478737981e-05
2.86257646478737981e-05
2.86257646478630035e-05
2.86257646478720465e-05
2.86257646478735271e-05
2.86257646478737608e-05
2.86257646478737913e-05
2.86257646478737947e-05
2.86257646478737981e-05
2.86257646478737981e-05
2.86257646478737981e-05
2.86257646478737981e-05
2.86257646478737981e-05
2.86257646478737981e-05
2.86257646478737981e-05
2.86257646478737981e-05
2.86257646478737981e-05
2.86257646478737981e-05
2.86257646478737981e-05
2.86257646478737981e-05
2.86257646478737981e-05
2.86257646478737981e-05
2.86257646478737981e-05
2.86257646478737981e-05
2.86257646478737981e-05
2.86257646478737981e-05
2.86257646478737981e-05
2.86257646478737981e-05
2.86257646478737981e-05
2.86257646478737981e-05
2.86257646478737981e-05
2.86257646478737981e-05
2.86257646478737981e-05
2.86257646478737981e-05
2.86257646478737981e-05
2.86257646478737981e-05
2.86257646478737981e-05
2.86257646478737981e-05
2.86257646478737981e-05
2.86257646478737981e-05
2.86257646478737981e-05
2.86257646478737981e-05
2.86257646478737981e-05
2.86257646478737981e-05
2.86257646478737981e-05
2.86257646478737981e-05
2.86257646478737981e-05
2.86257646478737981e-05
2.86257646478737981e-05
2.86257646478737981e-05
2.86257646478737981e-05
2.86257646478737981e-05
2.86257646478737981e-05
2.86257646478737981e-05
2.86257646478737981e-05
2.86257646478737981e-05
2.86257646478737981e-05
2.86257646478737981e-05
2.86257646478737981e-05
2.86257646478737981e-05
2.86257646478737981e-05
2.86257646478737981e-05
2.86257646478737981e-05
2.86257646478737981e-05
2.86257646478737981e-05
2.86257646478737981e-05
2.86257646478737981e-05
2.86257646478737981e-05
2.86257646478737981e-05
2.86257646478737981e-05
2.86257646478737981e-05
2.86257646478737981e-05
2.86257646478737981e-05
2.86257646478737981e-05
2.86257646478737981e-05
2.86257646478737981e-05
2.86257646478737981e-05
2.86257646478630137e-05
2.86257646478720431e-05
2.86257646478735271e-05
2.86257646478737575e-05
2.86257646478737913e-05
2.86257646478737947e-05
2.86257646478737981e-05
2.86257646478737981e-05
2.86257646478737981e-05
2.86257646478737981e-05
2.86257646478737981e-05
2.86257646478737981e-05
2.86257646478737981e-05
2.86257646478737981e-05
2.86257646478737981e-05
2.86257646478737981e-05
2.86257646478737981e-05
2.86257646478737981e-05
2.86257646478737981e-05
2.86257646478737981e-05
2.86257646478737981e-05
2.86257646478737981e-05
2.86257646478737981e-05
2.86257646478737981e-05
2.86257646478737981e-05
2.86257646478737981e-05
2.86257646478737981e-05
2.86257646478737981e-05
2.86257646478737981e-05
2.86257646478737981e-05
2.86257646478737981e-05
2.86257646478737981e-05
2.86257646478737981e-05
2.86257646478737981e-05
2.86257646478737981e-05
2.86257646478737981e-05
2.86257646478737981e-05
2.86257646478737981e-05
2.86257646478737981e-05
2.86257646478737981e-05
2.86257646478737981e-05
2.86257646478737981e-05
2.86257646478737981e-05
2.86257646478737981e-05
2.86257646478737981e-05
2.86257646478737981e-05
2.86257646478737981e-05
2.86257646478737981e-05
2.86257646478737981e-05
2.86257646478737981e-05
2.86257646478737981e-05
2.86257646478737981e-05
2.86257646478737981e-05
2.86257646478737981e-05
2.86257646478737981e-05
2.86257646478737981e-05
2.86257646478737981e-05
2.86257646478737981e-05
2.86257646478737981e-05
2.86257646478737981e-05
2.86257646478737981e-05
2.86257646478737981e-05
2.86257646478737981e-05
2.86257646478737981e-05
2.86257646478737981e-05
2.86257646478737981e-05
2.86257646478737981e-05
2.86257646478737981e-05
2.86257646478737981e-05
2.86257646478737981e-05
2.86257646478737981e-05
2.86257646478737981e-05
2.86257646478737981e-05
2.86257646478737981e-05
2.86257646478737981e-05
2.8625764647863034e-05
2.86257646478720431e-05
2.86257646478735305e-05
2.86257646478737575e-05
2.86257646478737913e-05
2.86257646478737947e-05
2.86257646478737981e-05
2.86257646478737981e-05
2.86257646478737981e-05
2.86257646478737981e-05
2.86257646478737981e-05
2.86257646478737981e-05
2.86257646478737981e-05
2.86257646478737981e-05
2.86257646478737981e-05
2.86257646478737981e-05
2.86257646478737981e-05
2.86257646478737981e-05
2.86257646478737981e-05
2.86257646478737981e-05
2.86257646478737981e-05
2.86257646478737981e-05
2.86257646478737981e-05
2.86257646478737981e-05
2.86257646478737981e-05
2.86257646478737981e-05
2.86257646478737981e-05
2.86257646478737981e-05
2.86257646478737981e-05
2.86257646478737981e-05
2.86257646478737981e-05
2.86257646478737981e-05
2.86257646478737981e-05
2.86257646478737981e-05
2.86257646478737981e-05
2.86257646478737981e-05
2.86257646478737981e-05
2.86257646478737981e-05
2.86257646478737981e-05
2.86257646478737981e-05
2.86257646478737981e-05
2.86257646478737981e-05
2.86257646478737981e-05
2.86257646478737981e-05
2.86257646478737981e-05
2.86257646478737981e-05
2.86257646478737981e-05
2.86257646478737981e-05
2.86257646478737981e-05
2.86257646478737981e-05
2.86257646478737981e-05
2.86257646478737981e-05
2.86257646478737981e-05
2.86257646478737981e-05
2.86257646478737981e-05
2.86257646478737981e-05
2.86257646478737981e-05
2.86257646478737981e-05
2.86257646478737981e-05
2.86257646478737981e-05
2.86257646478737981e-05
2.86257646478737981e-05
2.86257646478737981e-05
2.86257646478737981e-05
2.86257646478737981e-05
2.86257646478737981e-05
2.86257646478737981e-05
2.86257646478737981e-05
2.86257646478737981e-05
2.86257646478737981e-05
2.86257646478737981e-05
2.86257646478737981e-05
2.86257646478737981e-05
2.86257646478737981e-05
2.86257646478737981e-05
2.86257646478630408e-05
2.86257646478720465e-05
2.86257646478735338e-05
2.86257646478737575e-05
2.86257646478737947e-05
2.86257646478737947e-05
2.86257646478737981e-05
2.86257646478737981e-05
2.86257646478737981e-05
2.86257646478737981e-05
2.86257646478737981e-05
2.86257646478737981e-05
2.86257646478737981e-05
2.86257646478737981e-05
2.86257646478737981e-05
2.86257646478737981e-05
2.86257646478737981e-05
2.86257646478737981e-05
2.86257646478737981e-05
2.86257646478737981e-05
2.86257646478737981e-05
2.86257646478737981e-05
2.86257646478737981e-05
2.86257646478737981e-05
2.86257646478737981e-05
2.86257646478737981e-05
2.86257646478737981e-05
2.86257646478737981e-05
2.86257646478737981e-05
2.86257646478737981e-05
2.86257646478737981e-05
2.86257646478737981e-05
2.86257646478737981e-05
2.86257646478737981e-05
2.86257646478737981e-05
2.86257646478737981e-05
2.86257646478737981e-05
2.86257646478737981e-05
2.86257646478737981e-05
2.86257646478737981e-05
2.86257646478737981e-05
2.86257646478737981e-05
2.86257646478737981e-05
2.86257646478737981e-05
2.86257646478737981e-05
2.86257646478737981e-05
2.86257646478737981e-05
2.86257646478737981e-05
2.86257646478737981e-05
2.86257646478737981e-05
2.86257646478737981e-05
2.86257646478737981e-05
2.86257646478737981e-05
2.86257646478737981e-05
2.86257646478737981e-05
2.86257646478737981e-05
2.86257646478737981e-05
2.86257646478737981e-05
2.86257646478737981e-05
2.86257646478737981e-05
2.86257646478737981e-05
2.86257646478737981e-05
2.86257646478737981e-05
2.86257646478737981e-05
2.86257646478737981e-05
2.86257646478737981e-05
2.86257646478737981e-05
2.86257646478737981e-05
2.86257646478737981e-05
2.86257646478737981e-05
2.86257646478737981e-05
2.86257646478737981e-05
2.86257646478737981e-05
2.86257646478737981e-05
2.86257646478737981e-05
2.86257646478630374e-05
2.86257646478720465e-05
2.86257646478735305e-05
2.86257646478737575e-05
2.86257646478737947e-05
2.86257646478737947e-05
2.86257646478737981e-05
2.86257646478737981e-05
2.86257646478737981e-05
2.86257646478737981e-05
2.86257646478737981e-05
2.86257646478737981e-05
2.86257646478737981e-05
2.86257646478737981e-05
2.86257646478737981e-05
2.86257646478737981e-05
2.86257646478737981e-05
2.86257646478737981e-05
2.86257646478737981e-05
2.86257646478737981e-05
2.86257646478737981e-05
2.86257646478737981e-05
2.86257646478737981e-05
2.86257646478737981e-05
2.86257646478737981e-05
2.86257646478737981e-05
2.86257646478737981e-05
2.86257646478737981e-05
2.86257646478737981e-05
2.86257646478737981e-05
2.86257646478737981e-05
2.86257646478737981e-05
2.86257646478737981e-05
2.86257646478737981e-05
2.86257646478737981e-05
2.86257646478737981e-05
2.86257646478737981e-05
2.86257646478737981e-05
2.86257646478737981e-05
2.86257646478737981e-05
2.86257646478737981e-05
2.86257646478737981e-05
2.86257646478737981e-05
2.86257646478737981e-05
2.86257646478737981e-05
2.86257646478737981e-05
2.86257646478737981e-05
2.86257646478737981e-05
2.86257646478737981e-05
2.86257646478737981e-05
2.86257646478737981e-05
2.86257646478737981e-05
2.86257646478737981e-05
2.86257646478737981e-05
2.86257646478737981e-05
2.86257646478737981e-05
2.86257646478737981e-05
2.86257646478737981e-05
2.86257646478737981e-05
2.86257646478737981e-05
2.86257646478737981e-05
2.86257646478737981e-05
2.86257646478737981e-05
2.86257646478737981e-05
2.86257646478737981e-05
2.86257646478737981e-05
2.86257646478737981e-05
2.86257646478737981e-05
2.86257646478737981e-05
2.86257646478737981e-05
2.86257646478737981e-05
2.86257646478737981e-05
2.86257646478737981e-05
2.86257646478737981e-05
2.86257646478737981e-05
2.8625764647863034e-05
2.86257646478720465e-05
2.86257646478735305e-05
2.86257646478737575e-05
2.86257646478737913e-05
2.86257646478737947e-05
2.86257646478737981e-05
2.86257646478737981e-05
2.86257646478737981e-05
2.86257646478737981e-05
2.86257646478737981e-05
2.86257646478737981e-05
2.86257646478737981e-05
2.86257646478737981e-05
2.86257646478737981e-05
2.86257646478737981e-05
2.86257646478737981e-05
2.86257646478737981e-05
2.86257646478737981e-05
2.86257646478737981e-05
2.86257646478737981e-05
2.86257646478737981e-05
2.86257646478737981e-05
2.86257646478737981e-05
2.86257646478737981e-05
2.86257646478737981e-05
2.86257646478737981e-05
2.86257646478737981e-05
2.86257646478737981e-05
2.86257646478737981e-05
2.86257646478737981e-05
2.86257646478737981e-05
2.86257646478737981e-05
2.86257646478737981e-05
2.86257646478737981e-05
2.86257646478737981e-05
2.86257646478737981e-05
2.86257646478737981e-05
2.86257646478737981e-05
2.86257646478737981e-05
2.86257646478737981e-05
2.86257646478737981e-05
2.86257646478737981e-05
2.86257646478737981e-05
2.86257646478737981e-05
2.86257646478737981e-05
2.86257646478737981e-05
2.86257646478737981e-05
2.86257646478737981e-05
2.86257646478737981e-05
2.86257646478737981e-05
2.86257646478737981e-05
2.86257646478737981e-05
2.86257646478737981e-05
2.86257646478737981e-05
2.86257646478737981e-05
2.86257646478737981e-05
2.86257646478737981e-05
2.86257646478737981e-05
2.86257646478737981e-05
2.86257646478737981e-05
2.86257646478737981e-05
2.86257646478737981e-05
2.86257646478737981e-05
2.86257646478737981e-05
2.86257646478737981e-05
2.86257646478737981e-05
2.86257646478737981e-05
2.86257646478737981e-05
2.86257646478737981e-05
2.86257646478737981e-05
2.86257646478737981e-05
2.86257646478737981e-05
2.86257646478737981e-05
2.86257646478737981e-05
2.86257646478630171e-05
2.86257646478720465e-05
2.86257646478735271e-05
2.86257646478737575e-05
2.86257646478737913e-05
2.86257646478737947e-05
2.86257646478737981e-05
2.86257646478737981e-05
2.86257646478737981e-05
2.86257646478737981e-05
2.86257646478737981e-05
2.86257646478737981e-05
2.86257646478737981e-05
2.86257646478737981e-05
2.86257646478737981e-05
2.86257646478737981e-05
2.86257646478737981e-05
2.86257646478737981e-05
2.86257646478737981e-05
2.86257646478737981e-05
2.86257646478737981e-05
2.86257646478737981e-05
2.86257646478737981e-05