/*--------------------------------*- C++ -*----------------------------------*\
  =========                 |
  \\      /  F ield         | OpenFOAM: The Open Source CFD Toolbox
   \\    /   O peration     | Website:  https://openfoam.org
    \\  /    A nd           | Version:  9
     \\/     M anipulation  |
\*---------------------------------------------------------------------------*/
FoamFile
{
    format      ascii;
    class       volScalarField;
    location    "0.01";
    object      gas::MW;
}
// * * * * * * * * * * * * * * * * * * * * * * * * * * * * * * * * * * * * * //

dimensions      [1 0 0 0 -1 0 0];

internalField   nonuniform List<scalar> 
1800
(
27.0507754041418877
27.1532909127246747
27.342298119655279
27.6654876042715649
27.8992457208077802
27.9820670131855387
28.0062889264662722
28.012351424669113
28.0136828192254619
28.013944390148307
28.0139909906129532
28.013998603230867
28.0139997529491573
28.0139999146694194
28.0139999359524232
27.0502556098401321
27.146851932327138
27.3250007902276373
27.629683119982765
27.8796108171884107
27.9743886734678071
28.0038732510492672
28.0117105589325348
28.0135351619877113
28.0139141549290862
28.0139854030630033
28.013997658960843
28.0139996057256297
28.01399989332117
28.0139999330323484
27.0501378914310351
27.145879081656787
27.3223711478164333
27.6245357142663046
27.876799581229168
27.9732963751837858
28.0035272340711963
28.0116172713790057
28.0135131711739831
28.013909533597424
28.0139845240381504
28.0139975066050049
28.0139995813731133
28.0139998897013456
28.0139999325254223
27.0501852775953289
27.1465377677651816
27.3239797288394044
27.6275195214068248
27.8781224529599534
27.973697502972442
28.0036236537035599
28.0116363793463172
28.0135163467833159
28.0139099844218364
28.0139845776841447
28.0139975112200617
28.0139995814998031
28.0139998896514584
28.0139999325103268
27.0501971477951884
27.146533904949127
27.3239819143651808
27.6275691891589616
27.8781850260263013
27.9737341618048418
28.0036378376732245
28.0116405636822989
28.0135173676288609
28.0139101915896056
28.013984614669269
28.0139975173747757
28.0139995824271075
28.0139998897774518
28.0139999325265343
27.0502265035689895
27.1468924360130153
27.324892985926958
27.6293522515264662
27.8790652136985138
27.974032178464892
28.0037186175682606
28.0116588877279789
28.0135209656083468
28.0139108225407227
28.0139847146414134
28.0139975317301371
28.0139995843397962
28.0139998900174128
28.0139999325548601
27.0502293343107887
27.1468465570285673
27.3247743285090579
27.6291190590130533
27.8789606936275653
27.9740051313324436
28.0037139630523129
28.0116585788876122
28.0135210728397333
28.0139108697042225
28.0139847270803948
28.0139975343894498
28.0139995848098593
28.0139998900896359
28.0139999325651168
27.0502422110323302
27.1470186087621421
27.3252294822524959
27.630058548547872
27.879455747161245
27.9741809104592392
28.0037632976424433
28.0116700294012659
28.0135233553587888
28.013911272833127
28.0139847907923922
28.013997543495595
28.0139995860143536
28.0139998902388285
28.0139999325825748
27.0502417006256159
27.1469698261119703
27.3250912914421917
27.6297513384075586
27.879287206713542
27.9741225496222832
28.0037477392600529
28.011666748273516
28.0135227846297035
28.0139111882468299
28.0139847806310449
28.0139975425941472
28.0139995859724706
28.0139998902431309
28.0139999325841913
27.0502468268288574
27.1470499013869819
27.3253190626214675
27.6302583659610583
27.8795786782403248
27.9742323136887308
28.0037796748129466
28.0116742780609158
28.013524292827217
28.0139114531885944
28.0139848218762673
28.0139975483994981
28.0139995867298808
28.0139998903362439
28.013999932594988
27.0502464576597106
27.1470471535272821
27.3253104558444626
27.6302360580697126
27.8795625407056313
27.9742253265375567
28.0037774987074997
28.0116737392305026
28.013524179299278
28.0139114319763145
28.0139848182826867
28.0139975478354089
28.0139995866467544
28.0139998903248468
28.013999932593574
27.0502410090387251
27.1469657239593083
27.3250807464591077
27.6297285279861562
27.8792740282002676
27.9741177089666202
28.0037464306967081
28.0116664691832433
28.013522735517892
28.0139111808489893
28.013984779677866
28.0139975424882692
28.0139995859625053
28.0139998902424985
28.0139999325842126
27.0502421813368272
27.1470190466178387
27.3252309695757063
27.6300633081236917
27.8794600962805106
27.9741829343379891
28.0037639255491406
28.0116701794423015
28.0135233861401254
28.0139112787270008
28.0139847918793556
28.0139975436883724
28.0139995860470101
28.0139998902439515
28.0139999325832925
27.0502292241787003
27.1468452619961411
27.3247709675285329
27.6291116562601076
27.8789571127994158
27.974004335291589
28.0037139773112429
28.0116586516871742
28.0135211015030343
28.0139108769296108
28.0139847285312982
28.0139975346475509
28.0139995848527406
28.0139998900963363
28.0139999325661009
27.0502268304642079
27.146894351460837
27.3248978395326851
27.629362814441059
27.8790712758046197
27.9740344639650651
28.0037193256656565
28.0116590804225787
28.013521012120826
28.0139108326328525
28.0139847166456732
28.0139975320949937
28.0139995844003771
28.0139998900266889
28.0139999325561995
27.0501974907400786
27.1465356766998092
27.3239865932531742
27.6275795118404623
27.8781924306468945
27.9737375789641014
28.0036390424080111
28.0116409108094579
28.0135174534260827
28.0139102101697794
28.0139846182476475
28.0139975179958718
28.0139995825274646
28.0139998897925793
28.0139999325286304
27.0501859613925753
27.1465413787774708
27.3239889492232457
27.627539542586355
27.8781365612881089
27.9737040021760173
28.0036259134903638
28.0116370087866713
28.0135164940326611
28.0139100145317705
28.013984583239715
28.0139975121640283
28.01399958164642
28.0139998896722169
28.0139999325130873
27.0501390178874104
27.1458844212921555
27.3223844303662133
27.6245629443595639
27.8768172371391785
27.9733043777043662
28.0035300895992343
28.0116180957385588
28.0135133704093313
28.0139095751714962
28.0139845316980853
28.0139975078602959
28.0139995815608529
28.0139998897277493
28.0139999325290674
27.0502578490162158
27.1468648319326995
27.3250333189882326
27.6297509566690351
27.8796501695000529
27.9744040809712011
28.0038779676159137
28.011711757296279
28.0135354244924777
28.0139142056805284
28.0139854118388172
28.0139976603457725
28.0139996059278396
28.0139998933477621
28.0139999330419371
27.0507779584263943
27.1533083621424964
27.3423426387097841
27.6655757994721974
27.8992900291972248
27.9820822445956878
28.0062929991700962
28.0123523307465554
28.0136829949806874
28.0139444209128463
28.0139909955902056
28.0139986039857867
28.0139997530581439
28.0139999146636889
28.0139999362135974
28.0139999385636145
28.0139999389085084
28.0139999389572623
28.0139999389638312
28.0139999389646803
28.0139999389647869
28.0139999389648011
28.0139999389648011
28.0139999389648011
28.0139999389648011
28.0139999389648011
28.0139999389648011
28.0139999389648011
28.0139999389648011
28.0139999389648011
28.0139999389648011
28.0139999389648011
28.0139999389648011
28.0139999389648011
28.0139999389648011
28.0139999389648011
28.0139999389648011
28.0139999389648011
28.0139999389648011
28.0139999389648011
28.0139999389648011
28.0139999389648011
28.0139999389648011
28.0139999389648011
28.0139999389648011
28.0139999389648011
28.0139999389648011
28.0139999389648011
28.0139999389648011
28.0139999389648011
28.0139999389648011
28.0139999389648011
28.0139999389648011
28.0139999389648011
28.0139999389648011
28.0139999389648011
28.0139999389648011
28.0139999389648011
28.0139999389648011
28.0139999389648011
28.0139999389648011
28.0139999389648011
28.0139999389648011
28.0139999389648011
28.0139999389648011
28.0139999389648011
28.0139999389648011
28.0139999389648011
28.0139999389648011
28.0139999389648011
28.0139999389648011
28.0139999389648011
28.0139999389648011
28.0139999389648011
28.0139999389648011
28.0139999389648011
28.0139999389648011
28.0139999389648011
28.0139999389648011
28.0139999389648011
28.0139999389648011
28.0139999389648011
28.0139999389648011
28.0139999389648011
28.0139999389648011
28.0139999389648011
28.0139999389648011
28.0139999389648011
28.0139999389648011
28.0139999389648011
28.013999938139527
28.0139999388440017
28.0139999389479222
28.0139999389625451
28.0139999389645098
28.013999938964762
28.013999938964794
28.0139999389648011
28.0139999389648011
28.0139999389648011
28.0139999389648011
28.0139999389648011
28.0139999389648011
28.0139999389648011
28.0139999389648011
28.0139999389648011
28.0139999389648011
28.0139999389648011
28.0139999389648011
28.0139999389648011
28.0139999389648011
28.0139999389648011
28.0139999389648011
28.0139999389648011
28.0139999389648011
28.0139999389648011
28.0139999389648011
28.0139999389648011
28.0139999389648011
28.0139999389648011
28.0139999389648011
28.0139999389648011
28.0139999389648011
28.0139999389648011
28.0139999389648011
28.0139999389648011
28.0139999389648011
28.0139999389648011
28.0139999389648011
28.0139999389648011
28.0139999389648011
28.0139999389648011
28.0139999389648011
28.0139999389648011
28.0139999389648011
28.0139999389648011
28.0139999389648011
28.0139999389648011
28.0139999389648011
28.0139999389648011
28.0139999389648011
28.0139999389648011
28.0139999389648011
28.0139999389648011
28.0139999389648011
28.0139999389648011
28.0139999389648011
28.0139999389648011
28.0139999389648011
28.0139999389648011
28.0139999389648011
28.0139999389648011
28.0139999389648011
28.0139999389648011
28.0139999389648011
28.0139999389648011
28.0139999389648011
28.0139999389648011
28.0139999389648011
28.0139999389648011
28.0139999389648011
28.0139999389648011
28.0139999389648011
28.0139999389648011
28.0139999389648011
28.0139999380642237
28.0139999388322671
28.0139999389461813
28.0139999389623
28.0139999389644778
28.013999938964762
28.013999938964794
28.0139999389648011
28.0139999389648011
28.0139999389648011
28.0139999389648011
28.0139999389648011
28.0139999389648011
28.0139999389648011
28.0139999389648011
28.0139999389648011
28.0139999389648011
28.0139999389648011
28.0139999389648011
28.0139999389648011
28.0139999389648011
28.0139999389648011
28.0139999389648011
28.0139999389648011
28.0139999389648011
28.0139999389648011
28.0139999389648011
28.0139999389648011
28.0139999389648011
28.0139999389648011
28.0139999389648011
28.0139999389648011
28.0139999389648011
28.0139999389648011
28.0139999389648011
28.0139999389648011
28.0139999389648011
28.0139999389648011
28.0139999389648011
28.0139999389648011
28.0139999389648011
28.0139999389648011
28.0139999389648011
28.0139999389648011
28.0139999389648011
28.0139999389648011
28.0139999389648011
28.0139999389648011
28.0139999389648011
28.0139999389648011
28.0139999389648011
28.0139999389648011
28.0139999389648011
28.0139999389648011
28.0139999389648011
28.0139999389648011
28.0139999389648011
28.0139999389648011
28.0139999389648011
28.0139999389648011
28.0139999389648011
28.0139999389648011
28.0139999389648011
28.0139999389648011
28.0139999389648011
28.0139999389648011
28.0139999389648011
28.0139999389648011
28.0139999389648011
28.0139999389648011
28.0139999389648011
28.0139999389648011
28.0139999389648011
28.0139999389648011
28.0139999389648011
28.0139999380609446
28.0139999388316454
28.0139999389460783
28.0139999389622822
28.0139999389644778
28.013999938964762
28.013999938964794
28.0139999389648011
28.0139999389648011
28.0139999389648011
28.0139999389648011
28.0139999389648011
28.0139999389648011
28.0139999389648011
28.0139999389648011
28.0139999389648011
28.0139999389648011
28.0139999389648011
28.0139999389648011
28.0139999389648011
28.0139999389648011
28.0139999389648011
28.0139999389648011
28.0139999389648011
28.0139999389648011
28.0139999389648011
28.0139999389648011
28.0139999389648011
28.0139999389648011
28.0139999389648011
28.0139999389648011
28.0139999389648011
28.0139999389648011
28.0139999389648011
28.0139999389648011
28.0139999389648011
28.0139999389648011
28.0139999389648011
28.0139999389648011
28.0139999389648011
28.0139999389648011
28.0139999389648011
28.0139999389648011
28.0139999389648011
28.0139999389648011
28.0139999389648011
28.0139999389648011
28.0139999389648011
28.0139999389648011
28.0139999389648011
28.0139999389648011
28.0139999389648011
28.0139999389648011
28.0139999389648011
28.0139999389648011
28.0139999389648011
28.0139999389648011
28.0139999389648011
28.0139999389648011
28.0139999389648011
28.0139999389648011
28.0139999389648011
28.0139999389648011
28.0139999389648011
28.0139999389648011
28.0139999389648011
28.0139999389648011
28.0139999389648011
28.0139999389648011
28.0139999389648011
28.0139999389648011
28.0139999389648011
28.0139999389648011
28.0139999389648011
28.0139999389648011
28.0139999380631401
28.0139999388319403
28.0139999389461174
28.0139999389622893
28.0139999389644778
28.013999938964762
28.013999938964794
28.0139999389648011
28.0139999389648011
28.0139999389648011
28.0139999389648011
28.0139999389648011
28.0139999389648011
28.0139999389648011
28.0139999389648011
28.0139999389648011
28.0139999389648011
28.0139999389648011
28.0139999389648011
28.0139999389648011
28.0139999389648011
28.0139999389648011
28.0139999389648011
28.0139999389648011
28.0139999389648011
28.0139999389648011
28.0139999389648011
28.0139999389648011
28.0139999389648011
28.0139999389648011
28.0139999389648011
28.0139999389648011
28.0139999389648011
28.0139999389648011
28.0139999389648011
28.0139999389648011
28.0139999389648011
28.0139999389648011
28.0139999389648011
28.0139999389648011
28.0139999389648011
28.0139999389648011
28.0139999389648011
28.0139999389648011
28.0139999389648011
28.0139999389648011
28.0139999389648011
28.0139999389648011
28.0139999389648011
28.0139999389648011
28.0139999389648011
28.0139999389648011
28.0139999389648011
28.0139999389648011
28.0139999389648011
28.0139999389648011
28.0139999389648011
28.0139999389648011
28.0139999389648011
28.0139999389648011
28.0139999389648011
28.0139999389648011
28.0139999389648011
28.0139999389648011
28.0139999389648011
28.0139999389648011
28.0139999389648011
28.0139999389648011
28.0139999389648011
28.0139999389648011
28.0139999389648011
28.0139999389648011
28.0139999389648011
28.0139999389648011
28.0139999389648011
28.0139999380667426
28.0139999388324341
28.0139999389461742
28.0139999389622893
28.0139999389644778
28.013999938964762
28.013999938964794
28.0139999389648011
28.0139999389648011
28.0139999389648011
28.0139999389648011
28.0139999389648011
28.0139999389648011
28.0139999389648011
28.0139999389648011
28.0139999389648011
28.0139999389648011
28.0139999389648011
28.0139999389648011
28.0139999389648011
28.0139999389648011
28.0139999389648011
28.0139999389648011
28.0139999389648011
28.0139999389648011
28.0139999389648011
28.0139999389648011
28.0139999389648011
28.0139999389648011
28.0139999389648011
28.0139999389648011
28.0139999389648011
28.0139999389648011
28.0139999389648011
28.0139999389648011
28.0139999389648011
28.0139999389648011
28.0139999389648011
28.0139999389648011
28.0139999389648011
28.0139999389648011
28.0139999389648011
28.0139999389648011
28.0139999389648011
28.0139999389648011
28.0139999389648011
28.0139999389648011
28.0139999389648011
28.0139999389648011
28.0139999389648011
28.0139999389648011
28.0139999389648011
28.0139999389648011
28.0139999389648011
28.0139999389648011
28.0139999389648011
28.0139999389648011
28.0139999389648011
28.0139999389648011
28.0139999389648011
28.0139999389648011
28.0139999389648011
28.0139999389648011
28.0139999389648011
28.0139999389648011
28.0139999389648011
28.0139999389648011
28.0139999389648011
28.0139999389648011
28.0139999389648011
28.0139999389648011
28.0139999389648011
28.0139999389648011
28.0139999389648011
28.0139999389648011
28.0139999380682312
28.0139999388326473
28.0139999389462098
28.0139999389622929
28.0139999389644778
28.013999938964762
28.013999938964794
28.0139999389648011
28.0139999389648011
28.0139999389648011
28.0139999389648011
28.0139999389648011
28.0139999389648011
28.0139999389648011
28.0139999389648011
28.0139999389648011
28.0139999389648011
28.0139999389648011
28.0139999389648011
28.0139999389648011
28.0139999389648011
28.0139999389648011
28.0139999389648011
28.0139999389648011
28.0139999389648011
28.0139999389648011
28.0139999389648011
28.0139999389648011
28.0139999389648011
28.0139999389648011
28.0139999389648011
28.0139999389648011
28.0139999389648011
28.0139999389648011
28.0139999389648011
28.0139999389648011
28.0139999389648011
28.0139999389648011
28.0139999389648011
28.0139999389648011
28.0139999389648011
28.0139999389648011
28.0139999389648011
28.0139999389648011
28.0139999389648011
28.0139999389648011
28.0139999389648011
28.0139999389648011
28.0139999389648011
28.0139999389648011
28.0139999389648011
28.0139999389648011
28.0139999389648011
28.0139999389648011
28.0139999389648011
28.0139999389648011
28.0139999389648011
28.0139999389648011
28.0139999389648011
28.0139999389648011
28.0139999389648011
28.0139999389648011
28.0139999389648011
28.0139999389648011
28.0139999389648011
28.0139999389648011
28.0139999389648011
28.0139999389648011
28.0139999389648011
28.0139999389648011
28.0139999389648011
28.0139999389648011
28.0139999389648011
28.0139999389648011
28.0139999389648011
28.0139999380704587
28.0139999388329564
28.0139999389462524
28.0139999389623
28.0139999389644778
28.013999938964762
28.013999938964794
28.0139999389648011
28.0139999389648011
28.0139999389648011
28.0139999389648011
28.0139999389648011
28.0139999389648011
28.0139999389648011
28.0139999389648011
28.0139999389648011
28.0139999389648011
28.0139999389648011
28.0139999389648011
28.0139999389648011
28.0139999389648011
28.0139999389648011
28.0139999389648011
28.0139999389648011
28.0139999389648011
28.0139999389648011
28.0139999389648011
28.0139999389648011
28.0139999389648011
28.0139999389648011
28.0139999389648011
28.0139999389648011
28.0139999389648011
28.0139999389648011
28.0139999389648011
28.0139999389648011
28.0139999389648011
28.0139999389648011
28.0139999389648011
28.0139999389648011
28.0139999389648011
28.0139999389648011
28.0139999389648011
28.0139999389648011
28.0139999389648011
28.0139999389648011
28.0139999389648011
28.0139999389648011
28.0139999389648011
28.0139999389648011
28.0139999389648011
28.0139999389648011
28.0139999389648011
28.0139999389648011
28.0139999389648011
28.0139999389648011
28.0139999389648011
28.0139999389648011
28.0139999389648011
28.0139999389648011
28.0139999389648011
28.0139999389648011
28.0139999389648011
28.0139999389648011
28.0139999389648011
28.0139999389648011
28.0139999389648011
28.0139999389648011
28.0139999389648011
28.0139999389648011
28.0139999389648011
28.0139999389648011
28.0139999389648011
28.0139999389648011
28.0139999389648011
28.0139999380707643
28.0139999388330061
28.0139999389462631
28.0139999389623
28.0139999389644778
28.013999938964762
28.013999938964794
28.0139999389648011
28.0139999389648011
28.0139999389648011
28.0139999389648011
28.0139999389648011
28.0139999389648011
28.0139999389648011
28.0139999389648011
28.0139999389648011
28.0139999389648011
28.0139999389648011
28.0139999389648011
28.0139999389648011
28.0139999389648011
28.0139999389648011
28.0139999389648011
28.0139999389648011
28.0139999389648011
28.0139999389648011
28.0139999389648011
28.0139999389648011
28.0139999389648011
28.0139999389648011
28.0139999389648011
28.0139999389648011
28.0139999389648011
28.0139999389648011
28.0139999389648011
28.0139999389648011
28.0139999389648011
28.0139999389648011
28.0139999389648011
28.0139999389648011
28.0139999389648011
28.0139999389648011
28.0139999389648011
28.0139999389648011
28.0139999389648011
28.0139999389648011
28.0139999389648011
28.0139999389648011
28.0139999389648011
28.0139999389648011
28.0139999389648011
28.0139999389648011
28.0139999389648011
28.0139999389648011
28.0139999389648011
28.0139999389648011
28.0139999389648011
28.0139999389648011
28.0139999389648011
28.0139999389648011
28.0139999389648011
28.0139999389648011
28.0139999389648011
28.0139999389648011
28.0139999389648011
28.0139999389648011
28.0139999389648011
28.0139999389648011
28.0139999389648011
28.0139999389648011
28.0139999389648011
28.0139999389648011
28.0139999389648011
28.0139999389648011
28.0139999389648011
28.0139999380721143
28.0139999388331873
28.0139999389462808
28.0139999389623071
28.0139999389644778
28.013999938964762
28.013999938964794
28.0139999389648011
28.0139999389648011
28.0139999389648011
28.0139999389648011
28.0139999389648011
28.0139999389648011
28.0139999389648011
28.0139999389648011
28.0139999389648011
28.0139999389648011
28.0139999389648011
28.0139999389648011
28.0139999389648011
28.0139999389648011
28.0139999389648011
28.0139999389648011
28.0139999389648011
28.0139999389648011
28.0139999389648011
28.0139999389648011
28.0139999389648011
28.0139999389648011
28.0139999389648011
28.0139999389648011
28.0139999389648011
28.0139999389648011
28.0139999389648011
28.0139999389648011
28.0139999389648011
28.0139999389648011
28.0139999389648011
28.0139999389648011
28.0139999389648011
28.0139999389648011
28.0139999389648011
28.0139999389648011
28.0139999389648011
28.0139999389648011
28.0139999389648011
28.0139999389648011
28.0139999389648011
28.0139999389648011
28.0139999389648011
28.0139999389648011
28.0139999389648011
28.0139999389648011
28.0139999389648011
28.0139999389648011
28.0139999389648011
28.0139999389648011
28.0139999389648011
28.0139999389648011
28.0139999389648011
28.0139999389648011
28.0139999389648011
28.0139999389648011
28.0139999389648011
28.0139999389648011
28.0139999389648011
28.0139999389648011
28.0139999389648011
28.0139999389648011
28.0139999389648011
28.0139999389648011
28.0139999389648011
28.0139999389648011
28.0139999389648011
28.0139999389648011
28.0139999380719402
28.013999938833166
28.0139999389462737
28.0139999389623071
28.0139999389644778
28.013999938964762
28.013999938964794
28.0139999389648011
28.0139999389648011
28.0139999389648011
28.0139999389648011
28.0139999389648011
28.0139999389648011
28.0139999389648011
28.0139999389648011
28.0139999389648011
28.0139999389648011
28.0139999389648011
28.0139999389648011
28.0139999389648011
28.0139999389648011
28.0139999389648011
28.0139999389648011
28.0139999389648011
28.0139999389648011
28.0139999389648011
28.0139999389648011
28.0139999389648011
28.0139999389648011
28.0139999389648011
28.0139999389648011
28.0139999389648011
28.0139999389648011
28.0139999389648011
28.0139999389648011
28.0139999389648011
28.0139999389648011
28.0139999389648011
28.0139999389648011
28.0139999389648011
28.0139999389648011
28.0139999389648011
28.0139999389648011
28.0139999389648011
28.0139999389648011
28.0139999389648011
28.0139999389648011
28.0139999389648011
28.0139999389648011
28.0139999389648011
28.0139999389648011
28.0139999389648011
28.0139999389648011
28.0139999389648011
28.0139999389648011
28.0139999389648011
28.0139999389648011
28.0139999389648011
28.0139999389648011
28.0139999389648011
28.0139999389648011
28.0139999389648011
28.0139999389648011
28.0139999389648011
28.0139999389648011
28.0139999389648011
28.0139999389648011
28.0139999389648011
28.0139999389648011
28.0139999389648011
28.0139999389648011
28.0139999389648011
28.0139999389648011
28.0139999389648011
28.0139999389648011
28.0139999380707856
28.0139999388330132
28.0139999389462631
28.0139999389623
28.0139999389644778
28.013999938964762
28.013999938964794
28.0139999389648011
28.0139999389648011
28.0139999389648011
28.0139999389648011
28.0139999389648011
28.0139999389648011
28.0139999389648011
28.0139999389648011
28.0139999389648011
28.0139999389648011
28.0139999389648011
28.0139999389648011
28.0139999389648011
28.0139999389648011
28.0139999389648011
28.0139999389648011
28.0139999389648011
28.0139999389648011
28.0139999389648011
28.0139999389648011
28.0139999389648011
28.0139999389648011
28.0139999389648011
28.0139999389648011
28.0139999389648011
28.0139999389648011
28.0139999389648011
28.0139999389648011
28.0139999389648011
28.0139999389648011
28.0139999389648011
28.0139999389648011
28.0139999389648011
28.0139999389648011
28.0139999389648011
28.0139999389648011
28.0139999389648011
28.0139999389648011
28.0139999389648011
28.0139999389648011
28.0139999389648011
28.0139999389648011
28.0139999389648011
28.0139999389648011
28.0139999389648011
28.0139999389648011
28.0139999389648011
28.0139999389648011
28.0139999389648011
28.0139999389648011
28.0139999389648011
28.0139999389648011
28.0139999389648011
28.0139999389648011
28.0139999389648011
28.0139999389648011
28.0139999389648011
28.0139999389648011
28.0139999389648011
28.0139999389648011
28.0139999389648011
28.0139999389648011
28.0139999389648011
28.0139999389648011
28.0139999389648011
28.0139999389648011
28.0139999389648011
28.0139999389648011
28.0139999380705618
28.013999938832967
28.013999938946256
28.0139999389623
28.0139999389644778
28.013999938964762
28.013999938964794
28.0139999389648011
28.0139999389648011
28.0139999389648011
28.0139999389648011
28.0139999389648011
28.0139999389648011
28.0139999389648011
28.0139999389648011
28.0139999389648011
28.0139999389648011
28.0139999389648011
28.0139999389648011
28.0139999389648011
28.0139999389648011
28.0139999389648011
28.0139999389648011
28.0139999389648011
28.0139999389648011
28.0139999389648011
28.0139999389648011
28.0139999389648011
28.0139999389648011
28.0139999389648011
28.0139999389648011
28.0139999389648011
28.0139999389648011
28.0139999389648011
28.0139999389648011
28.0139999389648011
28.0139999389648011
28.0139999389648011
28.0139999389648011
28.0139999389648011
28.0139999389648011
28.0139999389648011
28.0139999389648011
28.0139999389648011
28.0139999389648011
28.0139999389648011
28.0139999389648011
28.0139999389648011
28.0139999389648011
28.0139999389648011
28.0139999389648011
28.0139999389648011
28.0139999389648011
28.0139999389648011
28.0139999389648011
28.0139999389648011
28.0139999389648011
28.0139999389648011
28.0139999389648011
28.0139999389648011
28.0139999389648011
28.0139999389648011
28.0139999389648011
28.0139999389648011
28.0139999389648011
28.0139999389648011
28.0139999389648011
28.0139999389648011
28.0139999389648011
28.0139999389648011
28.0139999389648011
28.0139999389648011
28.0139999389648011
28.0139999389648011
28.0139999389648011
28.0139999380683768
28.0139999388326757
28.0139999389462133
28.0139999389622929
28.0139999389644778
28.013999938964762
28.013999938964794
28.0139999389648011
28.0139999389648011
28.0139999389648011
28.0139999389648011
28.0139999389648011
28.0139999389648011
28.0139999389648011
28.0139999389648011
28.0139999389648011
28.0139999389648011
28.0139999389648011
28.0139999389648011
28.0139999389648011
28.0139999389648011
28.0139999389648011
28.0139999389648011
28.0139999389648011
28.0139999389648011
28.0139999389648011
28.0139999389648011
28.0139999389648011
28.0139999389648011
28.0139999389648011
28.0139999389648011
28.0139999389648011
28.0139999389648011
28.0139999389648011
28.0139999389648011
28.0139999389648011
28.0139999389648011
28.0139999389648011
28.0139999389648011
28.0139999389648011
28.0139999389648011
28.0139999389648011
28.0139999389648011
28.0139999389648011
28.0139999389648011
28.0139999389648011
28.0139999389648011
28.0139999389648011
28.0139999389648011
28.0139999389648011
28.0139999389648011
28.0139999389648011
28.0139999389648011
28.0139999389648011
28.0139999389648011
28.0139999389648011
28.0139999389648011
28.0139999389648011
28.0139999389648011
28.0139999389648011
28.0139999389648011
28.0139999389648011
28.0139999389648011
28.0139999389648011
28.0139999389648011
28.0139999389648011
28.0139999389648011
28.0139999389648011
28.0139999389648011
28.0139999389648011
28.0139999389648011
28.0139999389648011
28.0139999389648011
28.0139999389648011
28.0139999389648011
28.0139999380669558
28.0139999388324661
28.0139999389461885
28.0139999389622893
28.0139999389644778
28.013999938964762
28.013999938964794
28.0139999389648011
28.0139999389648011
28.0139999389648011
28.0139999389648011
28.0139999389648011
28.0139999389648011
28.0139999389648011
28.0139999389648011
28.0139999389648011
28.0139999389648011
28.0139999389648011
28.0139999389648011
28.0139999389648011
28.0139999389648011
28.0139999389648011
28.0139999389648011
28.0139999389648011
28.0139999389648011
28.0139999389648011
28.0139999389648011
28.0139999389648011
28.0139999389648011
28.0139999389648011
28.0139999389648011
28.0139999389648011
28.0139999389648011
28.0139999389648011
28.0139999389648011
28.0139999389648011
28.0139999389648011
28.0139999389648011
28.0139999389648011
28.0139999389648011
28.0139999389648011
28.0139999389648011
28.0139999389648011
28.0139999389648011
28.0139999389648011
28.0139999389648011
28.0139999389648011
28.0139999389648011
28.0139999389648011
28.0139999389648011
28.0139999389648011
28.0139999389648011
28.0139999389648011
28.0139999389648011
28.0139999389648011
28.0139999389648011
28.0139999389648011
28.0139999389648011
28.0139999389648011
28.0139999389648011
28.0139999389648011
28.0139999389648011
28.0139999389648011
28.0139999389648011
28.0139999389648011
28.0139999389648011
28.0139999389648011
28.0139999389648011
28.0139999389648011
28.0139999389648011
28.0139999389648011
28.0139999389648011
28.0139999389648011
28.0139999389648011
28.0139999389648011
28.0139999380634421
28.01399993883199
28.0139999389461209
28.0139999389622893
28.0139999389644778
28.013999938964762
28.013999938964794
28.0139999389648011
28.0139999389648011
28.0139999389648011
28.0139999389648011
28.0139999389648011
28.0139999389648011
28.0139999389648011
28.0139999389648011
28.0139999389648011
28.0139999389648011
28.0139999389648011
28.0139999389648011
28.0139999389648011
28.0139999389648011
28.0139999389648011
28.0139999389648011
28.0139999389648011
28.0139999389648011
28.0139999389648011
28.0139999389648011
28.0139999389648011
28.0139999389648011
28.0139999389648011
28.0139999389648011
28.0139999389648011
28.0139999389648011
28.0139999389648011
28.0139999389648011
28.0139999389648011
28.0139999389648011
28.0139999389648011
28.0139999389648011
28.0139999389648011
28.0139999389648011
28.0139999389648011
28.0139999389648011
28.0139999389648011
28.0139999389648011