/*--------------------------------*- C++ -*----------------------------------*\
  =========                 |
  \\      /  F ield         | OpenFOAM: The Open Source CFD Toolbox
   \\    /   O peration     | Website:  https://openfoam.org
    \\  /    A nd           | Version:  9
     \\/     M anipulation  |
\*---------------------------------------------------------------------------*/
FoamFile
{
    format      ascii;
    class       volScalarField;
    location    "0.01";
    object      gas::cTot;
}
// * * * * * * * * * * * * * * * * * * * * * * * * * * * * * * * * * * * * * //

dimensions      [0 -3 0 0 1 0 0];

internalField   nonuniform List<scalar> 
1800
(
0.0212625250712027078
0.0212625129722627607
0.021262520081729859
0.0212625127884284865
0.0212625171994176888
0.021262512515501264
0.0212625160454256758
0.021262512512443682
0.0212625154076734151
0.0212625122806208329
0.0212625152459090666
0.0212625119360211959
0.0212625150578375811
0.021262511838698827
0.0212625147122234119
0.0212625201187876881
0.021262513314048239
0.0212625189240719763
0.0212625128065395373
0.0212625169101152076
0.0212625125707584239
0.0212625159472352825
0.0212625125877984773
0.0212625153355391928
0.021262512357148499
0.021262515185155751
0.0212625119950114357
0.0212625150208960619
0.02126251185762126
0.0212625146672427608
0.0212625208692890366
0.021262513346191194
0.0212625190505318501
0.0212625129059971704
0.0212625168965430225
0.0212625126319311158
0.0212625159347746909
0.0212625126035378871
0.0212625153293823227
0.0212625123630273902
0.0212625151755213848
0.0212625119881499763
0.0212625149447776135
0.0212625119005314077
0.0212625146617531277
0.0212625180641282316
0.0212625128793914701
0.0212625178174331124
0.0212625128159036683
0.0212625164454728899
0.0212625126613425162
0.0212625157504677843
0.0212625126616678532
0.0212625152370306408
0.0212625124203373699
0.0212625151227486889
0.0212625120476693935
0.0212625149787767816
0.0212625119300410281
0.0212625146429574856
0.0212625189079862775
0.0212625130705587778
0.0212625181394411819
0.0212625128788249199
0.0212625165221304313
0.0212625126683620158
0.0212625157538292586
0.0212625126712472391
0.021262515214750758
0.0212625124294799073
0.0212625151010821245
0.0212625120388914846
0.0212625149251000969
0.0212625119313541618
0.0212625146402225448
0.02126251711345074
0.0212625123492363524
0.0212625171068867407
0.0212625126990073458
0.0212625160400492508
0.0212625126641147605
0.0212625155625179203
0.021262512689019946
0.0212625151347074041
0.0212625124660023937
0.0212625150611202227
0.0212625120805464349
0.0212625149408488569
0.0212625119505570268
0.0212625146216372032
0.0212625179254110862
0.0212625127487475508
0.0212625175693407671
0.0212625127898063426
0.0212625162186390951
0.0212625126831816752
0.0212625155811299281
0.0212625127084580846
0.021262515115105983
0.0212625124678421581
0.0212625150409390187
0.0212625120762914947
0.0212625149046196914
0.021262511952224894
0.0212625146264486913
0.0212625166881044089
0.0212625119972668052
0.0212625167379217571
0.0212625125540111988
0.0212625158141963796
0.0212625126188039602
0.0212625154332056789
0.0212625126984899368
0.0212625150567444937
0.0212625124920372797
0.0212625150170965421
0.0212625120965421119
0.0212625149096772291
0.0212625119610901914
0.0212625146058304827
0.0212625174649531748
0.0212625125492693808
0.0212625172850293524
0.0212625127378213985
0.021262516043936551
0.0212625126816172148
0.0212625154897588091
0.0212625127177254007
0.0212625150583749985
0.0212625124853917206
0.0212625150077548064
0.0212625120956334256
0.021262514894354323
0.0212625119629555812
0.0212625146174033608
0.0212625166138525508
0.0212625118998551778
0.0212625166570878377
0.0212625124692180645
0.0212625157356418279
0.0212625125813900202
0.0212625153677011673
0.0212625126912683975
0.0212625150215077392
0.02126251249394202
0.0212625149979758024
0.0212625121026712507
0.0212625149065109043
0.0212625119769935013
0.0212625146179531571
0.0212625166229874485
0.0212625118984240344
0.0212625166568894339
0.0212625124690053527
0.021262515739011785
0.021262512587111336
0.0212625153758663997
0.0212625126948824544
0.021262515019527424
0.0212625124857329165
0.0212625149864201363
0.0212625120891440818
0.0212625148910231196
0.0212625119586912457
0.0212625145982333341
0.0212625174687802107
0.0212625125533523682
0.0212625172898040019
0.0212625127408287914
0.0212625160461789968
0.021262512681377313
0.0212625154873614074
0.0212625127144471272
0.0212625150547860083
0.0212625124823038851
0.0212625150046632655
0.02126251209144275
0.0212625148902990668
0.0212625119596130292
0.021262514613918513
0.0212625166841307889
0.0212625119917383767
0.0212625167323055066
0.0212625125483825728
0.0212625158084915195
0.0212625126132607346
0.0212625154277161603
0.0212625126940804848
0.0212625150517948176
0.0212625124864931001
0.0212625150116205544
0.0212625120928658894
0.0212625149053979577
0.0212625119560741725
0.0212625146015888791
0.0212625179196583927
0.0212625127418681822
0.0212625175623991081
0.0212625127824764594
0.0212625162110709198
0.0212625126759957359
0.0212625155739155185
0.0212625127021492805
0.0212625151090554999
0.0212625124621062048
0.0212625150352260296
0.0212625120682667854
0.0212625148977746703
0.0212625119457719967
0.0212625146187613891
0.021262517106031012
0.0212625123407994311
0.0212625170984385888
0.0212625126904861794
0.0212625160313132493
0.0212625126558900444
0.0212625155539841529
0.0212625126810074942
0.0212625151265385427
0.0212625124572810333
0.0212625150527831625
0.0212625120737851767
0.021262514932536003
0.0212625119419696529
0.0212625146141586577
0.021262518899564261
0.0212625130612155017
0.0212625181299378602
0.0212625128692083901
0.0212625165118238875
0.0212625126588030892
0.0212625157437139126
0.0212625126619690775
0.0212625152054926464
0.0212625124204474172
0.0212625150925137806
0.021262512028422477
0.0212625149164849571
0.0212625119217453168
0.021262514630131811
0.0212625180542074105
0.0212625128682506215
0.0212625178059593044
0.0212625128046579105
0.0212625164333782278
0.0212625126503457225
0.0212625157386463065
0.0212625126507738973
0.0212625152259601526
0.0212625124091389041
0.0212625151118169473
0.0212625120370642413
0.0212625149674438296
0.0212625119189270295
0.0212625146314252278
0.0212625208588401865
0.0212625133343691472
0.0212625190383434783
0.0212625128939094264
0.0212625168832231357
0.0212625126199054021
0.0212625159218610242
0.0212625125917084712
0.0212625153174972915
0.0212625123509794407
0.0212625151642375811
0.0212625119755405247
0.0212625149329433265
0.0212625118876647694
0.0212625146489049503
0.0212625201072795256
0.0212625133006398258
0.0212625189100235402
0.0212625127929896851
0.0212625168951889529
0.0212625125574867103
0.0212625159329360124
0.0212625125746751867
0.0212625153223559397
0.0212625123437723829
0.021262515172424324
0.0212625119814750865
0.0212625150080489392
0.021262511844109256
0.0212625146540683027
0.0212625250596078542
0.0212625129592450418
0.0212625200675566478
0.0212625127751586568
0.0212625171840890338
0.0212625125021374262
0.0212625160312797518
0.0212625124996014929
0.0212625153949082685
0.0212625122674873837
0.021262515233492315
0.021262511922381204
0.0212625150448702005
0.0212625118254571345
0.0212625146976978888
0.0212625107726748773
0.0212625136422333362
0.0212625111135987983
0.0212625130334761561
0.0212625112682136054
0.0212625126616835212
0.0212625112057903999
0.0212625124467165708
0.021262511072063138
0.0212625122336047023
0.0212625109874657013
0.0212625119568470022
0.0212625109558242688
0.0212625116485356362
0.0212625109153662048
0.0212625113678631406
0.0212625108180711578
0.0212625111388818934
0.0212625106616601486
0.0212625109412721489
0.0212625104746136384
0.0212625107395731372
0.0212625102801943106
0.021262510517627356
0.0212625100854793095
0.0212625102824029223
0.0212625098746900311
0.0212625100226447282
0.0212625096382768192
0.021262509762978693
0.0212625094162999274
0.0212625094803180308
0.0212625091357023718
0.0212625091325622621
0.0212625088640116464
0.0212625088096385674
0.0212625085930137937
0.0212625084604730098
0.0212625082764603367
0.0212625080740615896
0.0212625078999610674
0.0212625077215082003
0.0212625075068855474
0.0212625072879406747
0.0212625070485013487
0.0212625068430041149
0.0212625065963987711
0.0212625063680456361
0.021262506117880775
0.0212625058493669077
0.0212625055874475395
0.0212625053361033371
0.0212625050297276727
0.0212625047597500005
0.0212625044686926834
0.0212625041483052585
0.0212625038143197179
0.0212625035039157306
0.0212625031789737198
0.021262502830134717
0.0212625024919499243
0.021262502133115653
0.0212625017731127193
0.0212625014140180937
0.0212625010478692603
0.0212625006507967639
0.0212625002869560355
0.0212624998716926181
0.0212624994799573072
0.0212624990645543521
0.0212624986691265574
0.0212624982376044339
0.0212624978195116096
0.0212624974056525966
0.0212624944627019218
0.0212625108097909722
0.0212625135942297525
0.021262511141602311
0.0212625129881692347
0.0212625112839852359
0.0212625126243908766
0.021262511218478667
0.0212625124162044432
0.021262511090895414
0.0212625122067201175
0.0212625110064615756
0.0212625119341093571
0.0212625109686222988
0.0212625116316264365
0.021262510922795106
0.0212625113556041967
0.021262510821533704
0.0212625111292187932
0.0212625106642202674
0.0212625109337840242
0.0212625104760642072
0.0212625107308758547
0.0212625102847174841
0.0212625105109793475
0.0212625100886127023
0.0212625102656208743
0.0212625098777667991
0.0212625100089728382
0.0212625097275691531
0.0212625098461252243
0.0212625094438291494
0.0212625094978563974
0.0212625092103235561
0.0212625091618638233
0.0212625088654435218
0.0212625088361084492
0.0212625085935701161
0.0212625084542642159
0.0212625083008586742
0.0212625080673210717
0.021262507927855244
0.0212625077102128017
0.021262507513291045
0.0212625073004307948
0.0212625070378974004
0.0212625068548938541
0.0212625067216574704
0.0212625064189248501
0.0212625061305641017
0.0212625058420662753
0.0212625055740720131
0.0212625053585073186
0.0212625051308844501
0.0212625047489378438
0.0212625044646292602
0.021262504167484552
0.0212625038601840441
0.0212625036050804669
0.0212625032250311
0.0212625028217708276
0.0212625025037923333
0.021262502236584907
0.0212625018271820829
0.0212625013960760292
0.0212625010742383755
0.0212625006865616827
0.0212625001926987703
0.0212624998362401715
0.021262499496911863
0.0212624991075959502
0.0212624986361841899
0.0212624982069552597
0.02126249782026381
0.0212624973905699947
0.0212624944545856398
0.0212625108578190676
0.0212625136062582661
0.0212625111839421232
0.0212625130036429924
0.0212625113220107874
0.0212625126407798258
0.0212625112509039621
0.0212625124281372556
0.0212625111094162274
0.0212625122161425005
0.0212625110212378843
0.0212625119423664639
0.0212625109875112898
0.0212625116389767721
0.0212625109407702448
0.0212625113627040382
0.0212625108381477752
0.0212625111347651136
0.0212625106794403773
0.0212625109426983309
0.0212625104912344126
0.0212625107387852952
0.0212625103037218655
0.0212625105156803926
0.0212625101038024199
0.0212625102815993394
0.021262509903624438
0.0212625100756234919
0.0212625096372569961
0.0212625097207504721
0.0212625093947834652
0.0212625094824887007
0.0212625091456901533
0.0212625091666213233
0.021262508934044997
0.0212625088168714449
0.0212625086068834387
0.0212625084794124571
0.0212625082295758369
0.0212625081227628271
0.021262507906387125
0.0212625076929879933
0.021262507502106627
0.0212625072703799441
0.0212625071472944543
0.0212625068812945933
0.0212625065703777628
0.021262506360433038
0.0212625061306272803
0.0212625059134349259
0.0212625056638247496
0.0212625053209959287
0.0212625050071699566
0.0212625047677798759
0.0212625044728423883
0.0212625041521696395
0.0212625038561552182
0.0212625034779339271
0.0212625031805799766
0.0212625028969966809
0.0212625025404527546
0.0212625021155798399
0.0212625017665879074
0.0212625014568966417
0.0212625010199031066
0.0212625006533654522
0.0212625003282862143
0.0212624999443199771
0.0212624994665553922
0.021262499058800205
0.0212624986726151211
0.0212624982827739097
0.0212624978277016277
0.0212624974119310292
0.0212624944561569662
0.0212625108438139303
0.0212625135801865865
0.0212625111964780678
0.0212625129788799883
0.0212625113385373904
0.0212625126177655756
0.0212625112685232848
0.021262512408699176
0.0212625111245279622
0.0212625121981852849
0.0212625110364943262
0.0212625119259380532
0.0212625109923692546
0.0212625116267689367
0.0212625109416854745
0.021262511351958429
0.0212625108374699008
0.0212625111229767516
0.0212625106773744119
0.0212625109246617344
0.0212625104893753754
0.0212625107264016802
0.0212625102966118897
0.0212625105105994881
0.0212625101018162933
0.0212625102735750429
0.0212625098795432808
0.0212625100012052079
0.0212625096405855453
0.021262509743731204
0.021262509410897943
0.021262509453740374
0.0212625091510648227
0.0212625091655283746
0.0212625088950273017
0.0212625088105379417
0.0212625085973009859
0.0212625084399825116
0.0212625082672689147
0.0212625080969823799
0.0212625078912599824
0.0212625076994599725
0.0212625075059653112
0.0212625073203088419
0.0212625070654971667
0.0212625068410782839
0.0212625065939413445
0.0212625063699880129
0.0212625061261672646
0.0212625058724514003
0.0212625055722068072
0.0212625053028854746
0.0212625050276195986
0.0212625047462233381
0.0212625044227248566
0.0212625041355162074
0.0212625038278265351
0.021262503486517384
0.0212625031591892576
0.0212625028219066668
0.0212625024850118631
0.021262502115757885
0.0212625017689409175
0.0212625013900710515
0.02126250104193134
0.0212625006582584167
0.0212625002932371916
0.0212624998710754867
0.0212624994785834721
0.0212624990463254095
0.021262498637230242
0.0212624982197300999
0.0212624978090070436
0.0212624973845733159
0.0212624944574424483
0.021262510871071047
0.0212625135867969169
0.021262511208406748
0.0212625129881259013
0.0212625113451794662
0.0212625126305318567
0.0212625112719176321
0.0212625124273205131
0.021262511150454709
0.0212625122089541152
0.0212625110508590058
0.0212625119374220545
0.0212625110076280627
0.0212625116394953226
0.0212625109559831937
0.0212625113621704477
0.0212625108519721509
0.0212625111538566475
0.0212625106867792568
0.021262510943473964
0.0212625105015211251
0.0212625107540749363
0.0212625103051111465
0.0212625105224148389
0.0212625101075926901
0.0212625102807795681
0.0212625099024285995
0.0212625100464862611
0.0212625096570456841
0.0212625097600278763
0.0212625094158885759
0.0212625094770811408
0.0212625091648671223
0.0212625091672705921
0.021262508902690512
0.0212625088204590543
0.0212625086100663545
0.021262508490762954
0.0212625082944545331
0.0212625081161541482
0.0212625079107637352
0.0212625077166453333
0.0212625075205872781
0.0212625073002262882
0.0212625070937849034
0.0212625068558312015
0.0212625066131548988
0.0212625063824961325
0.0212625061371461942
0.0212625058830067347
0.0212625056364023346
0.0212625053615696641
0.021262505052702
0.0212625047721122645
0.0212625044880007837
0.0212625041769955656
0.0212625038399576159
0.0212625035115128376
0.0212625031924451556
0.021262502892167863
0.0212625024956180977
0.0212625021589607603
0.0212625018327209751
0.0212625014710349156
0.0212625010598151525
0.021262500677448247
0.0212625002916190034
0.0212624999098983067
0.0212624994970299491
0.0212624990921814437
0.0212624986920454846
0.021262498266115263
0.0212624978304117966
0.021262497408735842
0.0212624944537309624
0.0212625108631808515
0.0212625135721532001
0.0212625112040352657
0.0212625129733648756
0.0212625113454200237
0.0212625126135037208
0.0212625112743744862
0.0212625124037434492
0.0212625111293338123
0.0212625121890528783
0.0212625110394258632
0.0212625119247580735
0.0212625110018906383
0.0212625116185821868
0.0212625109520739944
0.021262511347465287
0.0212625108492946087
0.0212625111251965662
0.0212625106873508239
0.0212625109356690718
0.0212625105007548769
0.0212625107293442361
0.0212625103049639691
0.0212625105081748686
0.021262510109306472
0.021262510276222963
0.0212625098973516433
0.0212625100171714362
0.0212625096612347568
0.0212625097610407952
0.0212625094176943849
0.0212625094752897995
0.0212625091658700666
0.021262509162198448
0.0212625089009387883
0.0212625088198581981
0.0212625085988145911
0.0212625084501081967
0.021262508259086231
0.02126250809298149
0.0212625079028923442
0.0212625076978525049
0.0212625074847401715
0.0212625072942021799
0.0212625070762392024
0.0212625068506263407
0.0212625066150140887
0.0212625063738829008
0.0212625061161999633
0.0212625058695041884
0.0212625055993073339
0.021262505318378689
0.0212625050456255148
0.0212625047575485809
0.0212625044519671805
0.0212625041443010587
0.0212625038345519574
0.0212625035098721778
0.0212625031767046738
0.021262502832944237
0.0212625024947944372
0.0212625021365360871
0.0212625017736162714
0.0212625014075623758
0.0212625010421450336
0.0212625006623698848
0.0212625002759037861
0.0212624998753279219
0.0212624994739940877
0.0212624990670755992
0.0212624986169890305
0.0212624982123134909
0.0212624977971042142
0.0212624973829960914
0.0212624944582441439
0.0212625108805715723
0.0212625135767428516
0.0212625112200941976
0.0212625129818667727
0.0212625113566024815
0.0212625126265820127
0.0212625112837495078
0.0212625124233243937
0.0212625111496927352
0.0212625122416833096
0.0212625110707688539
0.0212625119416828302
0.0212625110124584071
0.0212625116350126583
0.0212625109633159531
0.0212625113787214583
0.0212625108547367797
0.0212625111377634096
0.0212625106948183679
0.0212625109417348482
0.0212625105046337047
0.0212625107380485026
0.021262510313561158
0.0212625105251481629
0.0212625101151939534
0.0212625102815246075
0.0212625099027669885
0.0212625100330626655
0.0212625096682460095
0.0212625097648669603
0.0212625094215717417
0.0212625094756886297
0.0212625091681252452
0.0212625091619044089
0.0212625089014930463
0.0212625088228590997
0.0212625086100300051
0.0212625084811883004
0.0212625082942823861
0.0212625080997587007
0.021262507914801828
0.0212625077217050255
0.0212625075388744623
0.0212625073004299205
0.021262507085805217
0.0212625068544982122
0.0212625066215022425
0.0212625063861316792
0.0212625061471975185
0.0212625058838574396
0.0212625056055993945
0.0212625053305170002
0.0212625050495411083
0.021262504761049069
0.0212625044548821265
0.0212625041487965426
0.0212625038349646169
0.0212625035126505525
0.021262503185447975
0.0212625028395762687
0.0212625025006916227
0.0212625021477935473
0.0212625017801935517
0.021262501416536822
0.0212625010437656713
0.0212625006681690237
0.0212625002789166399
0.0212624998806511568
0.0212624994834166477
0.0212624990928899534
0.021262498736844427
0.0212624983005937872
0.021262497876542788
0.0212624974226896489
0.0212624944601283068
0.0212625108704404056
0.0212625135625545518
0.021262511209275279
0.0212625129678082579
0.021262511349825982
0.0212625126112858179
0.0212625112767221326
0.02126251240488327
0.0212625111416171741
0.0212625121921929741
0.0212625110439421706
0.0212625119176941269
0.0212625110097244795
0.0212625116271663896
0.0212625109596845732
0.0212625113517992161
0.0212625108522632375
0.0212625111309570416
0.0212625106911741302
0.0212625109318476425
0.0212625105038971272
0.0212625107349142146
0.0212625103114275106
0.0212625105119697497
0.021262510114313151
0.0212625102755497342
0.0212625099018932916
0.0212625100262614011
0.0212625096692987681
0.0212625097629247813
0.0212625094239720161
0.0212625094764032734
0.0212625091700259575
0.0212625091619547922
0.0212625089021470856
0.0212625088223907313
0.0212625086051492496
0.0212625084593894391
0.0212625082676598555
0.0212625080964403169
0.021262507907930845
0.0212625077052840707
0.0212625075043976035
0.0212625072981070043
0.0212625070817839927
0.0212625068554507281
0.0212625066211847083
0.0212625063803783439
0.0212625061247997196
0.0212625058699617182
0.02126250560394791
0.0212625053294496456
0.0212625050468421735
0.0212625047553783898
0.0212625044557923047
0.0212625041491249812
0.0212625038343141511
0.0212625035103509614
0.0212625031751839701
0.0212625028397074207
0.0212625024931282561
0.0212625021368458254
0.0212625017824754799
0.0212625014164438825
0.0212625010442797427
0.0212625006682658317
0.0212625002794288899
0.0212624998854631861
0.0212624994892729319
0.021262499070811236
0.0212624986537064131
0.0212624982340224866
0.0212624978149065884
0.0212624973930053071
0.0212624944525997804
0.0212625108853833449
0.021262513572660742
0.0212625112228399804
0.0212625129783357188
0.0212625113610414376
0.0212625126235253467
0.0212625112871787786
0.0212625124182701866
0.0212625111480005506
0.02126251220062381
0.0212625110604341451
0.0212625119579020021
0.0212625110252730801
0.021262511648689128
0.0212625109670314012
0.0212625113586901414
0.0212625108566240964
0.0212625111363599871
0.0212625106968142991
0.021262510949335383
0.0212625105063507062
0.0212625107388213219
0.0212625103126718625
0.021262510515491502
0.0212625101155400273
0.0212625102798914209
0.0212625099039406538
0.0212625100306226451
0.0212625096711886764
0.0212625097653605342
0.0212625094257289475
0.0212625094776283732
0.0212625091710255329
0.0212625091621339996
0.0212625089024361912
0.0212625088231751663
0.0212625086081964475
0.0212625084707922865
0.0212625082755133893
0.0212625080982202612
0.0212625079126541328
0.0212625077152162369
0.0212625075089049702
0.021262507299250312
0.0212625070810854959
0.0212625068556194334
0.0212625066210592392
0.0212625063813187444
0.0212625061276931586
0.0212625058719017289
0.0212625056044881758
0.0212625053315867001
0.0212625050490228458
0.0212625047600590172
0.0212625044564442658
0.0212625041503254515
0.0212625038346299818
0.0212625035139269898
0.0212625031860987357
0.0212625028424858718
0.021262502500738089
0.0212625021499181673
0.0212625017847336735
0.0212625014179141855
0.021262501041904993
0.0212625006612997304
0.0212625002750781895
0.0212624998791210232
0.021262499480007864
0.0212624990745264482
0.0212624986473318837
0.0212624982329916862
0.0212624978110927988
0.0212624973935349182
0.0212624944671775326
0.021262510891135681
0.0212625135754940242
0.0212625112280192367
0.0212625129774103062
0.0212625113561734878
0.0212625126110674162
0.021262511276277922
0.0212625124040990536
0.0212625111418560733
0.0212625121983054249
0.0212625110527250305
0.021262511925396594
0.0212625110102110521
0.0212625116279262401
0.0212625109609057249
0.0212625113546343579
0.0212625108545457693
0.0212625111304582948
0.0212625106932514615
0.0212625109351907947
0.0212625105045827663
0.0212625107358407998
0.0212625103124069736
0.0212625105146441347
0.0212625101151788162
0.0212625102760401856
0.0212625099023740216
0.0212625100269487957
0.0212625096721458587
0.0212625097654172771
0.0212625094264517096
0.0212625094776811019
0.0212625091716349829
0.0212625091621895003
0.0212625089025934924
0.021262508822695543
0.0212625086074551932
0.0212625084669389834
0.0212625082760218749
0.0212625080990508572
0.0212625079118752697
0.0212625077116101596
0.0212625075118673262
0.0212625072984568633
0.0212625070813928924
0.0212625068561581344
0.0212625066206918109
0.0212625063806453352
0.0212625061277352326
0.0212625058712645719
0.0212625056019535609
0.0212625053281609924
0.0212625050437707068
0.0212625047520212107
0.0212625044539192301
0.0212625041469757144
0.0212625038322573762
0.0212625035080073882
0.0212625031784478523
0.0212625028411642519
0.0212625024966621862
0.0212625021416899818
0.0212625017864379838
0.0212625014254075768
0.0212625010533879083
0.021262500668195853
0.0212625002762901957
0.0212624998848646232
0.0212624994822541297
0.0212624990848532293
0.0212624986608803343
0.0212624982461211039
0.0212624978205406753
0.021262497397972896
0.0212624944561273024
0.0212625108710071849
0.0212625135550791843
0.0212625112081906049
0.0212625129608887339
0.0212625113473423055
0.0212625126136223724
0.0212625112828070811
0.0212625124071082264
0.0212625111366429309
0.0212625122010437657
0.0212625110540362906
0.0212625119239071014
0.0212625110117168545
0.021262511623223769
0.0212625109549252241
0.0212625113537472758
0.0212625108539446009
0.0212625111337887279
0.021262510693323685
0.0212625109343163622
0.0212625105053983188
0.0212625107361638296
0.021262510310403257
0.0212625105149145364
0.0212625101146209361
0.0212625102778024495
0.0212625099038171832
0.0212625100290892294
0.0212625096721309643
0.0212625097655962728
0.0212625094268360064
0.0212625094781365709
0.0212625091716727686
0.0212625091622279626
0.0212625089020077318
0.0212625088217660643
0.021262508607659273
0.0212625084670646572
0.0212625082751974129
0.0212625080978907713
0.021262507910517571
0.0212625077097953648
0.0212625075092326907
0.0212625072962849652
0.0212625070801667933
0.0212625068554552939
0.0212625066197754883
0.0212625063799476259
0.0212625061273588392
0.0212625058719408816
0.0212625056024310574
0.0212625053302757383
0.021262505048036652
0.02126250475661021
0.0212625044554302298
0.0212625041492957544
0.0212625038350211168
0.0212625035138611432
0.0212625031806200036
0.0212625028437070721
0.0212625024976472454
0.0212625021408451471
0.0212625017830258278
0.0212625014158278544
0.0212625010395644798
0.021262500659380127
0.0212625002702168768
0.0212624998771358299
0.0212624994762121849
0.0212624990668796726
0.0212624986524242998
0.0212624982344889191
0.0212624978146494711
0.0212624973947875932
0.0212624944537300846
0.0212625108815417165
0.0212625135695141999
0.0212625112204280799
0.0212625129773761981
0.0212625113622844364
0.0212625126259986252
0.0212625112853633488
0.0212625124211806155
0.02126251114651765
0.0212625121939039909
0.021262511051500961
0.0212625119270060392
0.0212625110118438432
0.0212625116347470722
0.0212625109644347214
0.0212625113704582695
0.0212625108543683349
0.0212625111338762378
0.0212625106920511196
0.0212625109376958499
0.0212625105036434101
0.0212625107361464789
0.0212625103121635954
0.0212625105122761157
0.0212625101126095346
0.021262510274970451
0.0212625099029556952
0.0212625100309366821
0.0212625096714542799
0.0212625097658057337
0.0212625094262403648
0.0212625094788426762
0.0212625091702256033
0.0212625091617663388
0.0212625089050615668
0.0212625088250187784
0.0212625086088695965
0.0212625084708337846
0.0212625082842809766
0.0212625080968524907
0.0212625079107310808
0.0212625077125523573
0.0212625075134754392
0.0212625073030378933
0.0212625070803604301
0.0212625068562431879
0.021262506619183507
0.0212625063795390395
0.0212625061262490742
0.0212625058727042918
0.0212625056146190337
0.0212625053382215039
0.0212625050481184893
0.0212625047588890226
0.0212625044620807571
0.0212625041510707685
0.0212625038313904516
0.0212625035095150954
0.0212625031789786048
0.0212625028411216263
0.0212625024990720363
0.0212625021576796636
0.0212625017870922035
0.0212625014211718019
0.0212625010490074748
0.0212625006714214013
0.0212625002695599752
0.0212624998815341727
0.0212624994822697005
0.0212624990800204285
0.0212624986680625509
0.0212624982492516552
0.0212624978244833618
0.0212624973998498459
0.0212624944568185759
0.0212625108662590039
0.0212625135576375718
0.0212625112044995609
0.0212625129624723283
0.0212625113430568759
0.0212625126025732594
0.0212625112728044505
0.0212625123933144651
0.0212625111334120639
0.0212625121874719727
0.0212625110413264991
0.0212625119205815533
0.021262510999864169
0.0212625116231221316
0.0212625109558103806
0.0212625113461032723
0.02126251085018218
0.0212625111234235956
0.0212625106885914773
0.0212625109341346777
0.0212625105012100649
0.021262510732864448
0.0212625103093908481
0.0212625105103515337
0.0212625101106122885
0.0212625102732951834
0.0212625099002019674
0.0212625100272570006
0.0212625096690234397
0.0212625097608071939
0.0212625094241265522
0.0212625094764059309
0.0212625091658123627
0.0212625091581679949
0.021262508900476873
0.0212625088194666884
0.0212625086056125283
0.0212625084623039549
0.0212625082642004283
0.0212625080895550052
0.0212625079062877184
0.0212625077093740247
0.0212625075087795115
0.0212625072921105336
0.0212625070783123461
0.0212625068544351169
0.0212625066183178314
0.0212625063790469124
0.0212625061225193285
0.0212625058641939431
0.0212625055970604229
0.0212625053227400614
0.0212625050432985359
0.0212625047532169868
0.0212625044496913725
0.0212625041436159887
0.0212625038271515923
0.0212625035067445234
0.0212625031760753577
0.0212625028376195041
0.0212625024914690867
0.0212625021355856737
0.0212625017812889776
0.0212625014173937026
0.0212625010441007331
0.0212625006610291101
0.0212625002562154032
0.0212624998675958257
0.0212624994688349646
0.0212624990705953601
0.0212624986573930232
0.0212624982313133343
0.0212624978174008779
0.0212624973924340974
0.0212624944559900581
0.0212625108728512653
0.0212625135701096958
0.0212625112130553941
0.0212625129748977224
0.0212625113498554966
0.0212625126198472784
0.0212625112727818956
0.0212625124189697243
0.021262511145997913
0.0212625122362561994
0.0212625110517174337
0.0212625119301538892
0.0212625110057244222
0.0212625116298313654
0.0212625109530668321
0.0212625113593245194
0.0212625108521998715
0.0212625111521126536
0.0212625106896646189
0.0212625109362969411
0.0212625105004108465
0.0212625107336171341
0.0212625103121584051
0.0212625105297414504
0.0212625101210684626
0.0212625102944408971
0.0212625099011196951
0.0212625100317360947
0.0212625096711852556
0.0212625097757621825
0.0212625094232912135
0.0212625094820120299
0.0212625091814323021
0.0212625091553478411
0.0212625089012581509
0.0212625088191324314
0.0212625086066037389
0.0212625084734304887
0.0212625082962598633
0.0212625081282915955
0.0212625079185144727
0.0212625077135292669
0.0212625075128822678
0.0212625072979464279
0.0212625070758854437
0.0212625068560937033
0.0212625066172026228
0.021262506381912169
0.0212625061432981238
0.0212625058876602969
0.021262505607459542
0.0212625053386180894
0.0212625050411904097
0.0212625047581464187
0.0212625044579418457
0.0212625041535456256
0.0212625038239202986
0.0212625035057157352
0.0212625031797951149
0.0212625028611973521
0.0212625025119393823
0.0212625021550148473
0.021262501777913962
0.0212625014206592362