/*--------------------------------*- C++ -*----------------------------------*\
  =========                 |
  \\      /  F ield         | OpenFOAM: The Open Source CFD Toolbox
   \\    /   O peration     | Website:  https://openfoam.org
    \\  /    A nd           | Version:  9
     \\/     M anipulation  |
\*---------------------------------------------------------------------------*/
FoamFile
{
    format      ascii;
    class       volScalarField;
    location    "0.01";
    object      N2;
}
// * * * * * * * * * * * * * * * * * * * * * * * * * * * * * * * * * * * * * //

dimensions      [0 0 0 0 0 0 0];

internalField   nonuniform List<scalar> 
1800
(
0.98574610230105264
0.98731502579009589
0.990248814860188786
0.995165464561005075
0.99853510664973244
0.999622133516013034
0.999915008447525011
0.999983022236733188
0.99999694017856211
0.999999496570180835
0.999999923630207066
0.999999989237145948
0.999999998581210581
0.999999999824135788
0.999999999979234833
0.985738980566339906
0.987205724173035648
0.989937324597596535
0.99455917378816916
0.99822221399607336
0.999507703815042392
0.999881275653207613
0.999974619017054867
0.999995118996708121
0.999999145252320476
0.99999986236569971
0.999999979451235199
0.99999999713651555
0.999999999625421299
0.999999999953381957
0.985737974804604566
0.987195504648706756
0.989910244687199903
0.994501459404589117
0.998193855406493302
0.999497778012343963
0.99987838404760998
0.999973891272352033
0.999994957069087476
0.999999112884662367
0.999999856470667137
0.999999978470385575
0.999999996985519224
0.999999999603739864
0.999999999950439977
0.985738758157336692
0.987207677261867422
0.989942323163335636
0.99455729077051902
0.998217921647994388
0.999504931000790076
0.999880091139253135
0.999974233806632529
0.999995016486736277
0.999999122056822509
0.999999857747406073
0.999999978628398511
0.999999997002994578
0.999999999605490575
0.999999999950592189
0.985738857795922074
0.987206659225845828
0.989939402784976386
0.994553933445712524
0.998216869499905179
0.999504795195856111
0.999880111082053213
0.999974250051967606
0.999995021896738612
0.999999123294803893
0.999999857982524887
0.999999978669592671
0.999999997009387909
0.999999999606369427
0.999999999950706098
0.985739250600044747
0.987212726660116502
0.989955804068276546
0.994584430103835682
0.998231115907295297
0.999509339143414111
0.999881272809360899
0.999974499122683547
0.999995068184075353
0.999999130980812723
0.999999859137301383
0.999999978827160518
0.999999997029340726
0.999999999608747858
0.999999999950973661
0.985739258455984313
0.987211474237694064
0.989952150983762325
0.994578238881749566
0.998228254813071203
0.999508508742091628
0.999881088445294774
0.999974467427881986
0.99999506401599858
0.999999130572196693
0.999999859124014012
0.999999978833422731
0.999999997031182808
0.999999999609087142
0.99999999995102673
0.985739430265438643
0.987214429974779817
0.989960487763181796
0.994594518125230476
0.998236396549668781
0.999511234398851478
0.999881810673394877
0.999974626055912363
0.999995093982729011
0.99999913559084086
0.999999859877364838
0.999999978935852352
0.999999997044070499
0.99999999961060515
0.999999999951195928
0.985739413661042563
0.98721340132916402
0.989957349692921595
0.994588232700962527
0.998233084738112342
0.9995101268860479
0.999881523536847783
0.999974566129959719
0.999995083464178425
0.999999133983506039
0.999999859665843926
0.999999978912021525
0.99999999704174769
0.999999999610412971
0.999999999951183827
0.98573948044881432
0.987214775281982315
0.989961488357649522
0.99459699962951964
0.998237866654485551
0.999511824597436371
0.999881990485597449
0.999974670588566483
0.999995103356414172
0.999999137310650488
0.999999860160374121
0.999999978978584614
0.999999997050050715
0.999999999611387524
0.999999999951291962
0.985739474860710896
0.987214731264216327
0.989961339830261133
0.994596621641641976
0.998237604653541721
0.999511716794811766
0.999881958430684503
0.999974662992453411
0.99999510182459983
0.999999137036591268
0.999999860115903694
0.999999978971909731
0.999999997049112244
0.999999999611264623
0.999999999951277196
0.985739402153521516
0.987213329592131261
0.989957154202388723
0.994587846728804625
0.998232875076866089
0.999510054332728992
0.999881504948581079
0.999974562359861485
0.999995082831783844
0.999999133892420788
0.999999859654545076
0.999999978910801612
0.999999997041634225
0.999999999610405199
0.999999999951183827
0.985739431224482043
0.987214445622724646
0.989960541759397739
0.994594639997617991
0.998236489823323692
0.999511273688586721
0.999881822082093752
0.999974628633374385
0.999995094478785096
0.999999135678359852
0.999999859892020226
0.999999978938203138
0.999999997044431654
0.999999999610657109
0.9999999999512027
0.985739256280619647
0.987211448851356921
0.989952075931361253
0.994578087244909925
0.998228179358017886
0.999508488856767685
0.999881086076111703
0.99997446773669485
0.999995064236648301
0.999999130632855615
0.9999998591362661
0.999999978835561576
0.999999997031529197
0.999999999609139767
0.99999999995103428
0.985739255911121104
0.987212760026197622
0.989955895954500065
0.994584614497843522
0.998231214974417247
0.999509373631893738
0.99988128255576747
0.9999745015334498
0.999995068715862523
0.99999913108722005
0.99999985915699241
0.99999997883053271
0.99999999702987008
0.999999999608824686
0.999999999950984209
0.985738861712766146
0.98720668115704735
0.989939462168384132
0.994554071623325986
0.998216965190401262
0.999504837226513287
0.999880125191897062
0.999974253919663214
0.999995022806929312
0.999999123482664509
0.99999985801701774
0.999999978675295886
0.999999997010267205
0.999999999606496326
0.999999999950722973
0.985738767358813717
0.987207729837491388
0.989942464034712422
0.994557592624558562
0.998218123101179633
0.999505018318097571
0.999880119702142411
0.999974241298459132
0.999995018137790903
0.9999991223750615
0.999999857802836178
0.999999978637317488
0.999999997004310193
0.999999999605667655
0.999999999950614615
0.985737989247449931
0.987195575224744326
0.989910421010159025
0.994501824425681802
0.998194078662203554
0.9994978742932914
0.999878416996535457
0.999973900395983217
0.999994959180703913
0.999999113306082266
0.999999856544890431
0.999999978482002616
0.999999996987177786
0.999999999603963019
0.999999999950468843
0.985739012147776039
0.987205917288547674
0.989937833343990548
0.994560219129735579
0.998222787895182595
0.999507915770341149
0.999881337004077553
0.999974633778474287
0.999995122061684727
0.999999145814504553
0.999999862458002431
0.999999979465076905
0.999999997138437346
0.999999999625666214
0.999999999953439467
0.98574613464613059
0.987315288656953838
0.990249527527250484
0.995166813338593248
0.998535735373195399
0.999622333591086543
0.999915058090944053
0.999983032498445445
0.999996942029915403
0.999999496872120863
0.999999923675860547
0.999999989243644638
0.999999998582095984
0.99999999982408927
0.999999999981082244
0.999999999997379763
0.999999999999650391
0.999999999999955369
0.99999999999999456
0.999999999999999334
0.999999999999999889
1
1
1
1
1
1
1
1
1
1
1
1
1
1
1
1
1
1
1
1
1
1
1
1
1
1
1
1
1
1
1
1
1
1
1
1
1
1
1
1
1
1
1
1
1
1
1
1
1
1
1
1
1
1
1
1
1
1
1
1
1
1
1
1
1
1
1
1
1
0.999999999993826827
0.999999999999137579
0.999999999999884759
0.999999999999985234
0.999999999999998224
0.999999999999999778
1
1
1
1
1
1
1
1
1
1
1
1
1
1
1
1
1
1
1
1
1
1
1
1
1
1
1
1
1
1
1
1
1
1
1
1
1
1
1
1
1
1
1
1
1
1
1
1
1
1
1
1
1
1
1
1
1
1
1
1
1
1
1
1
1
1
1
1
1
0.99999999999340472
0.999999999999073852
0.999999999999875544
0.999999999999984013
0.999999999999998002
0.999999999999999778
1
1
1
1
1
1
1
1
1
1
1
1
1
1
1
1
1
1
1
1
1
1
1
1
1
1
1
1
1
1
1
1
1
1
1
1
1
1
1
1
1
1
1
1
1
1
1
1
1
1
1
1
1
1
1
1
1
1
1
1
1
1
1
1
1
1
1
1
1
0.999999999993416044
0.999999999999074407
0.999999999999875544
0.999999999999983902
0.999999999999998002
0.999999999999999778
1
1
1
1
1
1
1
1
1
1
1
1
1
1
1
1
1
1
1
1
1
1
1
1
1
1
1
1
1
1
1
1
1
1
1
1
1
1
1
1
1
1
1
1
1
1
1
1
1
1
1
1
1
1
1
1
1
1
1
1
1
1
1
1
1
1
1
1
1
0.999999999993431365
0.999999999999076405
0.999999999999875766
0.999999999999984013
0.999999999999998002
0.999999999999999778
1
1
1
1
1
1
1
1
1
1
1
1
1
1
1
1
1
1
1
1
1
1
1
1
1
1
1
1
1
1
1
1
1
1
1
1
1
1
1
1
1
1
1
1
1
1
1
1
1
1
1
1
1
1
1
1
1
1
1
1
1
1
1
1
1
1
1
1
1
0.999999999993463562
0.999999999999080624
0.999999999999876321
0.999999999999984013
0.999999999999998002
0.999999999999999778
1
1
1
1
1
1
1
1
1
1
1
1
1
1
1
1
1
1
1
1
1
1
1
1
1
1
1
1
1
1
1
1
1
1
1
1
1
1
1
1
1
1
1
1
1
1
1
1
1
1
1
1
1
1
1
1
1
1
1
1
1
1
1
1
1
1
1
1
1
0.999999999993471445
0.999999999999081735
0.999999999999876432
0.999999999999984013
0.999999999999998002
0.999999999999999778
1
1
1
1
1
1
1
1
1
1
1
1
1
1
1
1
1
1
1
1
1
1
1
1
1
1
1
1
1
1
1
1
1
1
1
1
1
1
1
1
1
1
1
1
1
1
1
1
1
1
1
1
1
1
1
1
1
1
1
1
1
1
1
1
1
1
1
1
1
0.999999999993491873
0.999999999999084399
0.999999999999876765
0.999999999999984124
0.999999999999998002
0.999999999999999778
1
1
1
1
1
1
1
1
1
1
1
1
1
1
1
1
1
1
1
1
1
1
1
1
1
1
1
1
1
1
1
1
1
1
1
1
1
1
1
1
1
1
1
1
1
1
1
1
1
1
1
1
1
1
1
1
1
1
1
1
1
1
1
1
1
1
1
1
1
0.999999999993491318
0.999999999999084399
0.999999999999876876
0.999999999999984124
0.999999999999998002
0.999999999999999778
1
1
1
1
1
1
1
1
1
1
1
1
1
1
1
1
1
1
1
1
1
1
1
1
1
1
1
1
1
1
1
1
1
1
1
1
1
1
1
1
1
1
1
1
1
1
1
1
1
1
1
1
1
1
1
1
1
1
1
1
1
1
1
1
1
1
1
1
1
0.999999999993504085
0.999999999999086064
0.999999999999876987
0.999999999999984124
0.999999999999998002
0.999999999999999778
1
1
1
1
1
1
1
1
1
1
1
1
1
1
1
1
1
1
1
1
1
1
1
1
1
1
1
1
1
1
1
1
1
1
1
1
1
1
1
1
1
1
1
1
1
1
1
1
1
1
1
1
1
1
1
1
1
1
1
1
1
1
1
1
1
1
1
1
1
0.999999999993502309
0.999999999999085842
0.999999999999876987
0.999999999999984124
0.999999999999998002
0.999999999999999778
1
1
1
1
1
1
1
1
1
1
1
1
1
1
1
1
1
1
1
1
1
1
1
1
1
1
1
1
1
1
1
1
1
1
1
1
1
1
1
1
1
1
1
1
1
1
1
1
1
1
1
1
1
1
1
1
1
1
1
1
1
1
1
1
1
1
1
1
1
0.999999999993491429
0.999999999999084399
0.999999999999876876
0.999999999999984124
0.999999999999998002
0.999999999999999778
1
1
1
1
1
1
1
1
1
1
1
1
1
1
1
1
1
1
1
1
1
1
1
1
1
1
1
1
1
1
1
1
1
1
1
1
1
1
1
1
1
1
1
1
1
1
1
1
1
1
1
1
1
1
1
1
1
1
1
1
1
1
1
1
1
1
1
1
1
0.999999999993492761
0.99999999999908451
0.999999999999876876
0.999999999999984124
0.999999999999998002
0.999999999999999778
1
1
1
1
1
1
1
1
1
1
1
1
1
1
1
1
1
1
1
1
1
1
1
1
1
1
1
1
1
1
1
1
1
1
1
1
1
1
1
1
1
1
1
1
1
1
1
1
1
1
1
1
1
1
1
1
1
1
1
1
1
1
1
1
1
1
1
1
1
0.999999999993472555
0.999999999999081957
0.999999999999876543
0.999999999999984013
0.999999999999998002
0.999999999999999778
1
1
1
1
1
1
1
1
1
1
1
1
1
1
1
1
1
1
1
1
1
1
1
1
1
1
1
1
1
1
1
1
1
1
1
1
1
1
1
1
1
1
1
1
1
1
1
1
1
1
1
1
1
1
1
1
1
1
1
1
1
1
1
1
1
1
1
1
1
0.999999999993465116
0.999999999999080846
0.999999999999876321
0.999999999999984013
0.999999999999998002
0.999999999999999778
1
1
1
1
1
1
1
1
1
1
1
1
1
1
1
1
1
1
1
1
1
1
1
1
1
1
1
1
1
1
1
1
1
1
1
1
1
1
1
1
1
1
1
1
1
1
1
1
1
1
1
1
1
1
1
1
1
1
1
1
1
1
1
1
1
1
1
1
1
0.999999999993433697
0.999999999999076739
0.999999999999875877
0.999999999999984013
0.999999999999998002
0.999999999999999778
1
1
1
1
1
1
1
1
1
1
1
1
1
1
1
1
1
1
1
1
1
1
1
1
1
1
1
1
1
1
1
1
1
1
1
1
1
1
1
1
1
1
1
1
1
1
1
1
1
1
1
1
1
1
1
1
1
1
1
1
1
1
1
1
1
1
1
1
1
0.999999999993419042
0.999999999999074851
0.999999999999875655
0.999999999999983902
0.999999999999998002
0.999999999999999778
1
1
1
1
1
1
1
1
1
1
1
1
1
1
1
1
1
1
1
1
1
1
1
1
1
1
1
1
1
1
1
1
1
1
1
1
1
1
1
1
1
1
1
1
1
1
1
1
1
1
1
1
1
1
1
1
1
1
1
1
1
1
1
1
1
1
1
1
1
0.99999999999340905
0.999999999999075739
0.999999999999874989
0.999999999999983791
0.999999999999998002
0.999999999999999778
1
1
1
1
1
1
1
1
1
1
1
1
1
1
1
1
1
1
1
1
1
1
1
1
1
1
1
1
1
1
1
1
1
1
1
1
1
1
1
1
1
1
1
1
1
1
1
1
1
1
1
1
1
1
1
1
1
1
1
1
1
1
1
1
1
1
1
1
1
0.999999999993856581
0.999999999999226175
0.999999999999824585
0.999999999999979572
0.99999999999999567
0.999999999999999556
0.999999999999999889
1
1
1
1
1
1
1
1
1
1
1
1
1
1
1
1
1
1
1
1
1
1
1
1
1
1
1
1
1
1
1
1
1
1
1
1
1
1
1
1
1
1
1
1
1
1
1
1
1
1
1
1
1
1
1
1
1
1
1
1
1
1
1
1
1
1
1
1
1
1
1
1
1
1
1
1
1
1
1
1
1
1
1
1
1
1
1
1
1
1
1
1
1
1
1
1
1
1
1
1
1
1
1
1
1
1
1
1
1
1
1
1
1
1
1
1
1
1
1
1
1
1
1
1
1
1
1
1
1
1
1
1
1
1
1
1
1
1
1
1
1
1
1
)
;

boundaryField
{
    reactingWall
    {
        type            catalyticWall;
        gradient        uniform 0;
    }
    inertWall
    {
        type            zeroGradient;
    }
    inlet
    {
        type            fixedValue;
        value           uniform 0.98516999999999999;
    }
    outlet
    {
        type            zeroGradient;
    }
    defaultFaces
    {
        type            empty;
    }
}


// ************************************************************************* //
