/*--------------------------------*- C++ -*----------------------------------*\
  =========                 |
  \\      /  F ield         | OpenFOAM: The Open Source CFD Toolbox
   \\    /   O peration     | Website:  https://openfoam.org
    \\  /    A nd           | Version:  9
     \\/     M anipulation  |
\*---------------------------------------------------------------------------*/
FoamFile
{
    format      ascii;
    class       volScalarField;
    location    "0.01";
    object      O2;
}
// * * * * * * * * * * * * * * * * * * * * * * * * * * * * * * * * * * * * * //

dimensions      [0 0 0 0 0 0 0];

internalField   nonuniform List<scalar> 
1800
(
0.0113798166591373585
0.0101200935123886455
0.00775288928727069487
0.00379085231434964608
0.0011216957740129705
0.000282090837187764511
6.17430185060373414e-05
1.19772107164882889e-05
2.09172122391431599e-06
3.32739293443287417e-07
4.86897951425191883e-08
6.60302942725452493e-09
8.3551226732995365e-10
9.91543084648795564e-11
1.11870074426280066e-11
0.0113853673923392778
0.0102097635663549319
0.00801189038389163444
0.00428886686397163697
0.0013749539003901079
0.000373135120500791932
8.80815852426015722e-05
1.84065448797570295e-05
3.45511599937353124e-06
5.89693816662969042e-07
9.23990620525208394e-08
1.34022603516126441e-08
1.81139401063950818e-09
2.29424422774762876e-10
2.76129641304557439e-11
0.0113860195353740201
0.0102170420543868743
0.00803101132238281078
0.00433117281706069113
0.00139483421346745114
0.00037975780745439625
8.99212614485578939e-05
1.88487470137972619e-05
3.54922669558751624e-06
6.07700393018427696e-07
9.55412328068456572e-08
1.39022046468568965e-08
1.88491825162587313e-09
2.39501573990253942e-10
2.89171259557513404e-11
0.0113853798087936026
0.01020688621625589
0.00800380607521228478
0.00428444186866348831
0.00137481495566648174
0.00037383862775424104
8.85128795510884108e-05
1.85658869673452695e-05
3.49981842317599392e-06
5.99962872744250339e-07
9.44371610512539658e-08
1.37593645483327634e-08
1.86791524361883886e-09
2.37596634874860642e-10
2.87165485916160334e-11
0.0113853154094616018
0.0102078831790971044
0.00800671432542695433
0.00428790338891303548
0.00137603936802202769
0.000374080396587016966
8.85348706191591933e-05
1.85622239534975208e-05
3.4975185138582033e-06
5.99363131207453421e-07
9.43170922716850102e-08
1.37374716543789848e-08
1.86445538118252964e-09
2.37120095526477002e-10
2.86548033414468117e-11
0.0113850113733072935
0.0102029118407097122
0.00799308503692884587
0.00426282066519436103
0.00136447778542507655
0.000370449080626373271
8.76219473553934802e-05
1.83699684638182515e-05
3.46246762224913861e-06
5.93661465392669126e-07
9.34789948292153222e-08
1.36257163449819209e-08
1.85065003670052645e-09
2.35517999227756549e-10
2.84795184456878943e-11
0.0113850117518970485
0.0102040190801236108
0.00799636107452610795
0.0042682832286536675
0.00136700915536379971
0.000371192770430248359
8.77908567332003992e-05
1.8400443364638514e-05
3.46691610116480939e-06
5.94208719933111754e-07
9.3530087544389176e-08
1.36276938273109624e-08
1.85028523476612874e-09
2.35408434630494361e-10
2.84594038729516975e-11
0.0113848789261110743
0.0102015903591668958
0.00798941645302219706
0.00425485654084100176
0.00136037895677909538
0.000369005830888124466
8.72206893677592151e-05
1.8277347953162256e-05
3.44408447640833997e-06
5.90459344046810969e-07
9.29788193654872591e-08
1.3554359793007924e-08
1.8412736384771829e-09
2.34373853750952567e-10
2.83471808400719009e-11
0.0113848938305025245
0.0102024672049295627
0.00799212496097068126
0.00426019795432968241
0.00136317053709631786
0.000369932457902681601
8.74592730435420039e-05
1.83269450326478842e-05
3.45278705692097453e-06
5.91794435981571665e-07
9.31570952247757093e-08
1.35751545538899091e-08
1.84343977566352078e-09
2.34577228746280341e-10
2.83642468511936509e-11
0.0113848426009079771
0.0102013391930691234
0.00798868429769692377
0.00425297297647571782
0.0013592793767959418
0.000368571426694524432
8.70908813645153819e-05
1.8245894841868077e-05
3.43761929745751843e-06
5.89303409795838905e-07
9.27937283094116425e-08
1.35271910164580592e-08
1.83758132545083224e-09
2.33905316640279858e-10
2.82914746505443396e-11
0.0113848470759212884
0.010201374907599401
0.00798880684459182117
0.00425328408356390793
0.00135949255426902056
0.000368657932731210726
8.7116235773106453e-05
1.82518167929438296e-05
3.43879605609844905e-06
5.89510713574767688e-07
9.28268147032650938e-08
1.35320673624805515e-08
1.83825313804322574e-09
2.33991430546593397e-10
2.8301597964301192e-11
0.0113849032519222938
0.010202526554828931
0.0079922886769799497
0.00426051581103003164
0.00136334046121834584
0.000369990295111166786
8.74738413854743077e-05
1.83298489713627166e-05
3.45326560367838307e-06
5.91862124808703789e-07
9.31653461014277603e-08
1.35760311039543686e-08
1.84352029190373086e-09
2.34582840818333519e-10
2.83643207786635055e-11
0.0113848778864390349
0.0102015760789880457
0.00798936708053346253
0.00425474893664244593
0.00136029878502865538
0.000368972676367075049
8.72112034952115828e-05
1.82752342921506527e-05
3.44368412897398262e-06
5.90390227851903609e-07
9.29675718808322035e-08
1.35526167024877234e-08
1.84101591102274792e-09
2.34338205132657649e-10
2.83426735090067218e-11
0.0113850135919713758
0.0102040405320675629
0.00799642590335253658
0.00426841261847297603
0.0013670737150189695
0.000371210173612637469
8.77932378079067941e-05
1.84003483472032252e-05
3.46678194342440017e-06
5.94170203026723547e-07
9.35223314562920478e-08
1.36263611093074065e-08
1.85007377325758164e-09
2.35377089383500357e-10
2.84550355317785809e-11
0.0113850070473458503
0.0102028842509077899
0.00799300776691415013
0.00426266774771640565
0.00136439693873156029
0.000370421502622985776
8.76143534722459715e-05
1.83681465193596987e-05
3.46207879416974435e-06
5.93586266171214016e-07
9.34655427623650733e-08
1.36234889188870027e-08
1.85031222760705831e-09
2.35470675054665288e-10
2.84732150937344923e-11
0.0113853125175104684
0.0102078665481758202
0.00800666892077041628
0.00428779570990280717
0.00137596571941484501
0.000374048592882087264
8.85243933568511147e-05
1.85594113541763108e-05
3.49687117155429588e-06
5.99232647988679269e-07
9.42937373932242025e-08
1.37337153244518569e-08
1.86389286225898123e-09
2.37041360678427689e-10
2.8644656901590669e-11
0.0113853726588722445
0.010206844483881811
0.00800369279908037107
0.00428419945479642864
0.00137465562249166218
0.000373770805590420755
8.849114420113575e-05
1.85603127040976099e-05
3.49861966475997874e-06
5.99737837230211787e-07
9.43990527605551455e-08
1.37534107241507831e-08
1.86706375434127249e-09
2.37485724938221712e-10
2.87029854285511757e-11
0.0113860084675132742
0.0102169874732760194
0.00803087464325803572
0.0043308885322754908
0.00139466359561427229
0.000379685481551166396
8.98969186196597723e-05
1.88421285339866194e-05
3.54772573926848257e-06
6.074074723644553e-07
9.54908822571451341e-08
1.38945311306835393e-08
1.88385372195397007e-09
2.39362530525577987e-10
2.88999168430546076e-11
0.0113853425379852168
0.0102096092157375751
0.0080114788892204792
0.00428802368856055164
0.00137449790581759598
0.000372969539193718062
8.80345254458138169e-05
1.83954420746886802e-05
3.45285864555766301e-06
5.89288970176279442e-07
9.23341733647738292e-08
1.33927774715755626e-08
1.81011335755043794e-09
2.29264339002126496e-10
2.75861935247926984e-11
0.011379791972582062
0.0101198830328041878
0.00775230965542523295
0.00378976590861671752
0.00112119969380836994
0.000281936557044943368
6.17056975008772933e-05
1.19697093430203013e-05
2.09040888878696347e-06
3.32532307059743541e-07
4.86595989149236947e-08
6.5988900294853192e-09
8.34969991641051702e-10
9.9181494604375104e-11
1.01748413287873121e-11
1.33582530326778881e-12
1.68196645858544634e-13
2.02030373793836132e-14
2.32191129086043195e-15
2.55766163285791855e-16
2.69804449580892466e-17
2.92724135011895163e-18
3.32983561771214448e-19
3.51986523119662245e-20
6.82418463867827969e-21
6.52299816144728539e-22
1.13284478256222018e-22
1.05263741393989593e-23
9.32245187895713237e-25
7.40134294289045539e-26
1.0944759883678289e-26
8.14718436208527615e-28
1.07551947427012477e-28
1.39476851197650519e-29
1.87994567961063255e-30
1.28503731229129233e-31
1.67064646043391097e-32
1.10254068707553666e-33
1.38819161454044391e-34
9.39905742531586294e-36
6.27093076670921639e-37
4.11297161531660895e-38
2.5243135027581898e-39
2.79927780866376104e-40
3.22289000240193673e-41
1.99955884901060458e-42
1.22066979912285693e-43
7.04756849632372279e-45
7.70105476203204148e-46
4.28124703030995786e-47
4.55990331042371067e-48
2.59649521440776808e-49
1.45888590996209541e-50
8.09293475212989827e-52
4.22846614447205333e-53
4.24117831501721695e-54
2.26972438727328275e-55
1.16783632009956064e-56
1.13357399996437199e-57
5.8688988315430407e-59
3.0621892890855809e-60
1.63708864915328534e-61
8.5974530436748665e-63
4.54539269022617162e-64
4.30697899291341989e-65
2.17017508116535797e-66
1.1007612068514796e-67
1.06644706316358964e-68
5.46294831966695679e-70
3.04125389799348844e-71
1.63878122582036232e-72
8.22773113859901432e-74
7.85682901686720334e-75
3.9420843981002315e-76
2.11684797275706314e-77
1.84461054329533714e-78
1.63154137779400706e-79
1.47071425942039972e-80
1.23211651919400132e-81
1.03129117525102238e-82
8.59720233351678436e-84
7.13834150077058952e-85
5.9191154014289221e-86
4.95208843519323321e-87
4.53319409720532854e-88
8.01603987376463974e-89
4.60698953239764294e-89
4.46051513605772595e-89
4.45171921821445304e-89
4.45781786705585289e-89
3.51053869527495588e-12
4.69878294933979232e-13
5.99859194086107777e-14
7.32457341913924783e-15
8.56300034851701964e-16
9.68349949280692474e-17
1.07774752866126046e-17
1.09218927476429546e-18
2.11586651722968136e-19
2.26105220217005905e-20
2.33097794468582413e-21
2.1315597311209259e-22
3.64043918880384453e-23
3.33621689216713199e-24
2.96180120362787568e-25
2.54896985808780032e-26
2.1331421849748367e-27
1.62824837641718988e-28
2.36412379206569636e-29
1.86614671193146395e-30
1.44304296212015976e-31
1.09711246163283024e-32
7.76436013250771718e-34
1.04112910143068948e-34
7.07130156012967207e-36
9.17551005088375625e-37
6.0815383558828412e-38
7.71337537124209328e-39
4.96428358391865673e-40
5.76161546118121989e-41
6.96032050082809912e-42
4.26299947508754534e-43
5.00999790194351616e-44
3.15380126827562877e-45
1.85522270288600015e-46
2.09710309578815625e-47
1.26729015671362358e-48
7.55352478449490307e-50
4.47391725785680991e-51
2.48644164731493209e-52
2.66008310314005565e-53
1.44665005110663145e-54
1.50525914722175906e-55
8.40599915699992582e-57
4.47676179600844616e-58
4.34430206346066877e-59
4.3441696916519688e-60
2.21022818594815692e-61
2.17036986878675261e-62
1.13493487908927475e-63
5.65057836226241113e-65
5.20200683479023719e-66
4.95705107119755629e-67
2.43177996402600169e-68
2.27842384388085626e-69
1.14740575936908053e-70
5.48499220568478619e-72
5.01683888275089162e-73
2.33776245120718506e-74
2.10249745359763462e-75
1.00217613883059331e-76
9.19945076474369673e-78
8.95969015054595372e-79
4.50978935122529782e-80
4.14687099446833426e-81
3.7322727648908271e-82
3.2975429739888094e-83
2.88008117200974629e-84
2.55533498031862281e-85
2.8321089530863309e-86
8.93106998497892853e-87
7.11550017777217852e-87
7.03858629954422535e-87
7.03807097146151101e-87
7.04921795123814755e-87
3.68745024181851463e-12
4.95170750409898516e-13
6.34258001702221981e-14
7.76908640279502417e-15
9.12391966218419593e-16
1.03066094973031007e-16
1.02971215622903614e-17
1.78261296911116582e-18
3.25062847894260057e-19
3.22839344044358947e-20
3.12631919682635968e-21
2.72820449725597506e-22
4.49345639387911501e-23
3.72725320086530774e-24
5.85695120640264527e-25
4.97408061452389488e-26
4.15075914272196238e-27
3.16651657119972279e-28
4.30095500998145675e-29
6.09911755922925233e-30
4.69463422761568325e-31
3.32911236215082023e-32
4.47850477460673258e-33
3.2435283006420951e-34
2.17259508746221157e-35
2.63612248401402781e-36
3.15687130272353873e-37
3.92174148753906516e-38
2.6274820354245485e-39
1.63940796421282157e-40
1.96422289272052259e-41
1.19468530344095884e-42
1.38861538019327906e-43
8.69240515203143924e-45
5.09448594018761618e-46
5.7103744498917121e-47
3.44506721304286221e-48
1.95146104789031673e-49
2.1146554610010886e-50
1.17169606534276428e-51
1.25137470783035222e-52
7.13584645760693133e-54
3.87972157344374571e-55
3.83947103779598114e-56
3.94290113875710837e-57
2.1614638824716423e-58
1.17397143033265777e-59
6.02727665968501626e-61
5.93726233724986247e-62
2.97714301883836594e-63
2.76098340412603205e-64
2.53291108844424095e-65
2.30760233795485353e-66
2.17278807576390388e-67
1.04451665991074974e-68
9.68614087727888985e-70
4.78881146289617449e-71
2.34923914658140853e-72
1.09519462023003548e-73
9.48528956694252248e-75
8.16778596912272169e-76
7.00028831956582781e-77
5.97599950170288576e-78
5.08647809777486646e-79
4.32417982137935889e-80
3.67433272200501627e-81
3.11971304486229351e-82
2.73793996121889223e-83
3.37852930541199961e-84
1.18330050467893094e-84
1.07790855517357632e-84
1.06869743917813953e-84
1.06884719981484912e-84
1.06984320860353045e-84
1.07170045486497997e-84
3.66552698637413238e-12
4.92565026764387299e-13
6.31217053575750502e-14
7.73633837736502481e-15
9.09104283049854923e-16
1.02543412752329622e-16
1.13247745212214255e-17
1.15251334500818501e-18
2.30291122046136378e-19
2.39757049832636489e-20
4.75684808260775642e-21
5.1900647039717711e-22
5.43838496161761174e-23
5.04829397402499151e-24
8.72598116290086294e-25
7.5421581427846574e-26
1.22456391705425027e-26
1.07048934512618476e-27
8.47703307898906922e-29
1.19455150866320655e-29
1.75013956018919573e-30
1.38436784620302698e-31
1.07111939380180979e-32
8.10734957310105932e-34
5.67226715972883537e-35
7.15331629761491404e-36
9.40196915501292465e-37
6.31083992975683806e-38
8.02898770487302626e-39
5.2086333246750933e-40
6.46659068375257693e-41
4.3598331770911386e-42
2.73676837461211298e-43
3.25134142331488555e-44
2.06649012820049716e-45
1.24265133223774456e-46
1.41799025205038904e-47
8.65526110143117813e-49
4.95199377309348796e-50
5.19256843466089638e-51
5.62325447166629568e-52
3.09373705753567506e-53
3.27864706617503679e-54
1.76622872882108395e-55
1.8339718808645694e-56
1.01549804565526574e-57
5.59281346649118375e-59
3.04646771488195108e-60
1.64269954261105138e-61
8.37019812066023722e-63
8.18676552431815001e-64
4.09917368537628354e-65
3.94355806589128243e-66
1.93424301921647193e-67
1.82574206375258154e-68
8.78719255498314233e-70
8.16550786040232866e-71
4.03617389499820516e-72
1.90535757790118476e-73
1.6888457934738638e-74
1.5100907493104315e-75
1.37015527021058132e-76
1.25918099899775825e-77
1.16498149085866088e-78
1.08205816358433114e-79
1.0185931458771721e-80
6.4214774525218884e-82
1.98276886984721096e-82
1.58733614675361279e-82
1.55211091388092995e-82
1.54712819508934118e-82
1.54708680502275598e-82
1.54800864891024232e-82
1.54959954996811025e-82
1.55229333891609092e-82
3.65727630916475712e-12
4.9149543057435062e-13
6.29939716749195934e-14
7.72103767804767512e-15
9.07462365686519146e-16
1.02577864875557646e-16
1.12065725811873569e-17
1.09339024962757256e-18
2.02773151363875696e-19
1.91262869207875401e-20
3.18914651679846111e-21
5.65068011761408187e-22
5.09842938307395358e-23
8.76321687802829757e-24
7.65148398415770492e-25
1.18251905734048271e-25
1.91918271504815125e-26
1.68809717725174937e-27
1.34865622945413431e-28
2.04460675532785858e-29
1.56335127922831366e-30
2.26423090108895413e-31
1.76533438517622358e-32
1.26143141434850436e-33
1.61843525075228845e-34
2.04064641958245102e-35
2.53121283032333294e-36
3.26865390728502487e-37
2.13527973158007799e-38
2.52605140285192623e-39
2.94710448591716052e-40
3.57570117259579352e-41
2.32280034600966744e-42
1.48602618172941895e-43
8.87094079636888017e-45
1.01677155880601241e-45
6.23355594402379827e-47
3.77010512970753229e-48
2.13692537885148069e-49
2.33082353518944882e-50
1.35892743181804557e-51
7.44553625279514007e-53
7.8582031749423341e-54
4.21446380270146812e-55
4.35756541582545039e-56
2.29078348459392495e-57
2.32069125128195075e-58
1.25326884459579558e-59
6.69775118725529488e-61
3.5431436147788502e-62
1.77347714793526094e-63
1.71279982959082871e-64
8.81005561994449298e-66
4.48876357808306832e-67
2.26920771781753463e-68
1.08793867875266086e-69
1.0078281836886911e-70
4.91525222779460237e-72
3.06259690568270813e-73
3.42079877739613726e-74
1.82307735393056209e-75
1.72518206368554121e-76
1.59020948902138969e-77
1.33801805006917786e-78
1.36396166880578379e-79
2.63000869509225204e-80
2.16448593597641639e-80
2.12783448734945742e-80
2.13070267374926947e-80
2.12908107435015652e-80
2.12660228052463255e-80
2.12741663736014716e-80
2.12901196051543834e-80
2.13129960128576787e-80
2.13483736977727917e-80
3.63692592181402502e-12
4.88940903807831488e-13
6.26849011438599804e-14
7.68545551247586605e-15
9.03407671865187306e-16
1.02104022153460616e-16
1.08920051082906891e-17
1.18974597116759016e-18
2.52564937140958976e-19
2.8279010496769012e-20
2.69512020038103687e-21
4.70581614772456245e-22
4.07523829299702797e-23
6.6446884452199775e-24
5.4542771745864473e-25
8.50537933035543904e-26
7.23455973125384773e-27
5.62990979832709712e-28
7.80620267220947973e-29
1.13407733526149258e-29
8.89877878391747589e-31
6.45976394779745215e-32
8.90599644175046229e-33
6.20855945245500146e-34
8.26791614828825704e-35
5.94990367309566435e-36
4.00018525351346716e-37
5.14423389010938615e-38
3.54649831096784114e-39
2.30698254196069685e-40
2.86751982181869003e-41
1.96631755005019826e-42
1.3240021277458832e-43
8.30162286233134475e-45
9.23640007991190928e-46
1.06890225326916973e-46
6.62093746975706302e-48
4.04735699445750956e-49
2.31805587173714973e-50
2.5547378430852865e-51
1.50482353850820857e-52
8.74482569682729999e-54
5.13074001027983342e-55
2.82563481482940967e-56
2.86258686416982904e-57
2.94809090389217807e-58
1.57475563346139566e-59
1.5915636579949729e-60
8.57558303587650846e-62
4.57494104281533342e-63
2.30770782071213848e-64
2.2476117169908961e-65
1.16604606947306241e-66
5.73503702833564878e-68
5.39968252196475419e-69
2.59147461373916999e-70
2.37692344126242459e-71
1.47454173123896652e-72
1.55196122171742844e-73
1.52282414668848466e-74
1.44080789983323854e-75
1.27433764115625635e-76
1.29289611759641055e-77
3.56904497220841088e-78
2.82636226712318106e-78
2.7668735846160799e-78
2.76241156738642084e-78
2.76359739257333547e-78
2.76704482974556404e-78
2.76854787400668466e-78
2.76563932315632655e-78
2.76748294158779288e-78
2.77007415644762647e-78
2.77285905854214836e-78
2.77697194296794258e-78
3.63379854933797975e-12
4.88501780262644633e-13
6.26279460831175888e-14
7.67828631562149958e-15
9.02517400761121001e-16
1.01981519471433431e-16
1.08637899319164068e-17
1.30638347939740294e-18
1.43477453164963314e-19
2.83444912134519578e-20
2.91740872474446649e-21
2.83083820712733251e-22
2.62068688455887646e-23
2.36846817305914314e-24
2.07663280655637748e-25
1.78936691553222621e-26
1.52008318352311702e-27
1.17980790342919135e-28
1.72714971430162326e-29
1.38567200795772273e-30
1.09835692339014285e-31
8.12701914548161922e-33
1.13073306958484808e-33
8.46166163172268647e-35
6.35926766775218253e-36
4.41579691448231943e-37
5.73486839489851576e-38
3.8574206742130293e-39
4.86761383318187253e-40
3.29163944472827072e-41
2.2599521004352398e-42
1.47393280070016617e-43
1.77023473217869825e-44
1.15810400531261728e-45
7.19765916520252407e-47
8.43938187969484277e-48
5.29449074053429533e-49
3.27418064812781347e-50
1.99291958942896002e-51
1.23278263894270073e-52
7.50756497995090343e-54
4.50376335472439467e-55
2.6668586742753023e-56
1.5548098436729187e-57
9.31583281673853279e-59
5.86987130147661949e-60
3.6009170472260286e-61
2.35879954905375328e-62
1.47544559799877111e-63
8.52081268490676958e-65
8.71099627311208346e-66
5.03927320802388739e-67
2.74531209928498554e-68
2.71632533567593278e-69
1.51227996240642469e-70
8.25030336511209158e-72
8.58616583120303786e-73
9.1470294729453522e-74
8.71266831431980251e-75
1.24256248786291914e-75
3.88809623097668399e-76
3.42496887108346992e-76
3.38593446783612588e-76
3.38230363409545534e-76
3.38234608177175477e-76
3.38325488702818733e-76
3.38354964159968018e-76
3.38442106172202405e-76
3.38465757501806408e-76
3.38496470521349123e-76
3.38682629508234872e-76
3.39125424308778943e-76
3.39469420685191154e-76
3.39760489547069169e-76
3.40171476364376627e-76
3.6207640338222911e-12
4.86873286158453808e-13
6.24330288182344277e-14
7.65601616865035997e-15
9.00166880273282876e-16
1.01563602156672336e-16
1.08884086507742586e-17
1.36542877428942622e-18
1.58948624450996458e-19
3.3769895996630267e-20
3.77485385754098212e-21
3.93815395418954995e-22
3.60166202490708998e-23
6.12231278903341899e-24
5.6264840739952962e-25
4.65781933493605015e-26
7.24182762364149508e-27
6.12208602048953644e-28
5.06167393080295839e-29
3.83048272096526738e-30
5.15960074639237628e-31
7.26559644599377163e-32
5.51512055240572441e-33
4.10248798173607503e-34
3.01366879355306248e-35
2.04441326138894418e-36
2.63460233222347293e-37
1.72864464958807505e-38
2.15751018199952867e-39
1.37127325324042384e-40
1.57418847724039986e-41
1.8792580517136922e-42
1.1369710122395822e-43
1.31562092633810079e-44
8.16114706826458069e-46
4.98910583431703122e-47
3.00611292193362632e-48
1.78599967577548381e-49
1.04644139815774455e-50
6.07540784902131876e-52
3.50855433321142712e-53
1.99829243394134705e-54
1.1381648266999739e-55
6.38992660198095972e-57
3.61617794275084114e-58
1.92265362233721861e-59
1.96608043054323844e-60
1.06996915918741366e-61
5.75303201761365541e-63
3.05787916967234722e-64
1.53616838997916413e-65
1.42470606326816401e-66
1.31010834810507378e-67
1.19566479701942975e-68
1.078233886537728e-69
9.59457087368458171e-71
8.50509277463873534e-72
7.84050431914059725e-73
1.01677687565157365e-73
4.421459111456597e-74
3.90358812550128162e-74
3.88207802611446452e-74
3.88075134783972979e-74
3.88070744570911935e-74
3.88137411969215175e-74
3.88372874961456781e-74
3.88417323903439813e-74
3.88351318089372795e-74
3.88512151204644807e-74
3.88531407325924483e-74
3.88742787445444501e-74
3.89026224831702658e-74
3.89440295864276734e-74
3.89768923252826693e-74
3.90436567363481027e-74
3.62229788133934178e-12
4.87026513159121081e-13
6.24470168649668692e-14
7.65703644718257945e-15
9.00015561395678539e-16
1.01536466732661995e-16
1.12223632156452643e-17
1.25817906915388062e-18
1.31773266973806954e-19
2.69187803317225816e-20
3.09342840878749995e-21
3.1527539154209242e-22
5.53698829885232461e-23
9.41828617429017759e-24
1.66495919808952842e-24
1.58094143576400479e-25
1.34092254660166046e-26
2.13478696063175102e-27
1.82305996284927385e-28
1.50922293235480248e-29
1.13566092705242588e-30
1.62011524312150973e-31
1.23942037819843659e-32
8.68962096356489169e-34
1.15929004378496788e-34
8.28432164469758255e-36
5.46604454592799703e-37
6.88345436998035711e-38
4.38176814246998839e-39
5.33247638220200505e-40
3.2834366301740154e-41
3.8729890252960416e-42
2.44064443219734788e-43
1.43668601122019879e-44
1.62098888493416062e-45
9.76195422198677735e-47
5.79426734444922252e-48
3.39197199536846944e-49
1.86356796604068506e-50
1.87869461054268197e-51
1.96322708836960623e-52
1.041979653302091e-53
1.06556653214192895e-54
5.53733401640311228e-56
5.5486022324360729e-57
2.82661421119757584e-58
2.77829433046944954e-59
1.45393553916497613e-60
7.53350276417118086e-62
3.86607839176905296e-63
1.87982714096895434e-64
1.69360578830930039e-65
1.51766585931772204e-66
1.34780177183649227e-67
1.22876984481978379e-68
5.69505393332145842e-70
5.25757862286421162e-71
8.43684770827807552e-72
4.39825088043328784e-72
4.15934824039462114e-72
4.14948639301579035e-72
4.14948476016708241e-72
4.14987859682168095e-72
4.14978979469080362e-72
4.15079377229340669e-72
4.15246257775382891e-72
4.15296873470197386e-72
4.15298440353935366e-72
4.15361095133201501e-72
4.15483819906686113e-72
4.15674204049816684e-72
4.15983694238275273e-72
4.16259066775777836e-72
4.16773544161952537e-72
4.1758706205595831e-72
3.61394057200856248e-12
4.86009892781720475e-13
6.2329776546123003e-14
7.64447493608374268e-15
8.98685426803466241e-16
1.01586611053965485e-16
1.11134914779435174e-17
1.18742167350782953e-18
1.24702069725966569e-19
1.30452316956185162e-20
1.34432248664293118e-21
1.35533571878726882e-22
1.25050615074224266e-23
2.16330723882136433e-24
2.06587581983590347e-25
1.91265107051155778e-26
1.71283388453823321e-27
1.53331789004930592e-28
1.24512659199981693e-29
1.86560283957720826e-30
1.50179974701917004e-31
1.20910668833530432e-32
9.52356338544371407e-34
6.90347210767086323e-35
9.46507553746287381e-36
6.95636458569428057e-37
5.01056172454178315e-38
3.67238196922916159e-39
2.61236591379537569e-40
1.92018506079165221e-41
1.36125329527096211e-42
9.98443097495651791e-44
7.05654775349035221e-45
4.80743765635765413e-46
3.42761818060484042e-47
2.34877920767037531e-48
1.55721171205591794e-49
1.01060754497627858e-50
6.36040674127203865e-52
4.19284383661072807e-53
2.9705824834261843e-54
2.0007166847343738e-55
1.42891050065072574e-56
9.42168361175890044e-58
6.45500809140699259e-59
7.14023374755027664e-60
4.574620793840051e-61
2.80181551213794841e-62
1.65756622442190035e-63
9.1974626679060558e-65
9.37718768585836516e-66
5.31492041305386052e-67
5.7007312628650116e-68
6.48282076953210145e-69
1.08598736750361733e-69
4.50270512724293346e-70
4.12879874991637476e-70
4.1073777410122724e-70
4.10455054425473789e-70
4.10450337785474923e-70
4.10480268364416444e-70
4.10534349527593526e-70
4.10556188252074975e-70
4.10601533040177452e-70
4.10774488571873745e-70
4.10917667166997886e-70
4.10848524737321999e-70
4.10837895085426152e-70
4.10901932828393043e-70
4.11173140880505433e-70
4.11306476051867539e-70
4.11508563771822846e-70
4.11854735484022096e-70
4.123557973241105e-70
4.13238050107457933e-70
3.61513466634162471e-12
4.86151358350922715e-13
6.23444380506089093e-14
7.64546739674297914e-15
8.98955898714309632e-16
1.01390764674250371e-16
1.11225242613569547e-17
1.21384145250206552e-18
1.212272968556436e-19
2.31869776133329521e-20
2.44415206086612346e-21
2.29190343624952241e-22
4.02245817903161736e-23
3.8085679174031966e-24
3.48169184986053739e-25
3.08232872934542956e-26
2.6628885272298353e-27
2.24087858317439164e-28
1.71747026505139831e-29
2.5030745375725861e-30
1.96430070524571153e-31
1.41297929422643201e-32
1.82380746687473692e-33
2.45056003203081858e-34
1.76838826831442392e-35
1.17834690024201248e-36
1.4131125345659046e-37
1.75742710129467747e-38
1.10534821399982365e-39
1.32912860432310021e-40
8.54637775794188496e-42
5.40648669945896704e-43
3.36684774543509655e-44
2.06521613527365253e-45
1.24845285589276177e-46
7.45607480593558497e-48
4.17621007650255316e-49
4.49232726319389655e-50
2.45374213185575486e-51
2.46305671475870749e-52
2.446101643130129e-53
2.51938680270326817e-54
1.38379547376137285e-55
7.17052007590800487e-57
7.16687065058131154e-58
3.64353468512074166e-59
3.57185051883572495e-60
1.86425503119474948e-61
9.60041950491899078e-63
5.30458761103407961e-64
5.96093855244232108e-65
3.76780457668223426e-66
4.74590238275564922e-67
8.66838338811875939e-68
4.25797718661469047e-68
3.7820611984481961e-68
3.73274136183769466e-68
3.72778168782796698e-68
3.72717440013783408e-68
3.72723050217610244e-68
3.72770805720808584e-68
3.72836345537272297e-68
3.72849334269045919e-68
3.72853591241633258e-68
3.7297786902128681e-68
3.73229275129806867e-68
3.73144078969161057e-68
3.73120219505314527e-68
3.731336334790988e-68
3.7331064004303604e-68
3.73451027663143394e-68
3.7359411916375126e-68
3.73951853409835337e-68
3.74422227189238308e-68
3.75235426228290753e-68
3.62222837843816115e-12
4.87006264699393404e-13
6.24425607397290103e-14
7.65600528529323024e-15
8.99955281535248549e-16
1.01756073389060309e-16
1.08665141867070221e-17
1.31588075621442591e-18
1.45424638934217479e-19
2.92096443842089968e-20
3.09517186356498155e-21
2.87259090873712869e-22
4.99258787460776382e-23
4.71951403538598587e-24
4.35419496634232731e-25
3.65252781175771804e-26
5.79770653924197904e-27
4.98485069736392774e-28
3.90078992784168847e-29
5.79369454007776324e-30
4.63715612442544595e-31
3.40040423920066339e-32
4.46702283171562545e-33
6.11360636111811438e-34
4.49312589417701694e-35
3.23431054970979932e-36
2.28621330764100083e-37
1.58787181185049471e-38
1.08361850645814004e-39
7.28381387383288394e-41
4.81013240955271507e-42
3.13013009988430575e-43
2.00341655430136259e-44
1.26705138625480091e-45
7.48454291497219621e-47
8.44332988174411444e-48
5.08735298399091139e-49
3.04093915531476068e-50
1.7046178756143938e-51
1.83221858719870312e-52
1.00314782526170116e-53
1.05542077394954244e-54
5.9217032004032751e-56
3.12889697340494413e-57
3.18298628535955142e-58
1.72462258812557677e-59
9.28637057802837036e-61
4.8898835422220057e-62
5.20839590838576458e-63
2.95671357289965436e-64
3.48672764889053304e-65
4.90059671237126867e-66
3.28229843513902017e-66
3.08759510280912349e-66
3.077428030490503e-66
3.07667158018891868e-66
3.07610838993461464e-66
3.07584133693983008e-66
3.07579403051119885e-66
3.07590208200134621e-66
3.07606022151245033e-66
3.07734936966764357e-66
3.07736086213281172e-66
3.0766136976260265e-66
3.07719220248944912e-66
3.08144933203375315e-66
3.07999369390562742e-66
3.0794758304765839e-66
3.07946569406638323e-66
3.08139490917141268e-66
3.08231019635116027e-66
3.08302085117841525e-66
3.08600699739248733e-66
3.08970861350704252e-66
3.09631616382584089e-66
3.62018502383010418e-12
4.86795376439199614e-13
6.24226323965574299e-14
7.65478570140265531e-15
8.99773409687435365e-16
1.01772728552305875e-16
1.0896637271855447e-17
1.33517241491445305e-18
1.50326039035524407e-19
3.09431233213432248e-20
3.384856128212082e-21
3.5184504687390376e-22
3.52964357144054615e-23
3.42597240194698699e-24
2.9864349076692537e-25
4.89793961287622955e-26
4.35320331523386475e-27
3.7614935311209731e-28
3.16237344511242245e-29
2.60292164414710628e-30
1.95582193227645433e-31
2.7823054667223239e-32
2.13626887466493299e-33
1.61556781506658014e-34
1.19627020791162362e-35
8.16789116377114236e-37
1.0592216084829316e-37
6.94813887243804831e-39
8.69343587146013537e-40
5.83011828755816471e-41
3.63461471981943979e-42
4.33728450974813387e-43
2.62243330130316392e-44