/*--------------------------------*- C++ -*----------------------------------*\
  =========                 |
  \\      /  F ield         | OpenFOAM: The Open Source CFD Toolbox
   \\    /   O peration     | Website:  https://openfoam.org
    \\  /    A nd           | Version:  9
     \\/     M anipulation  |
\*---------------------------------------------------------------------------*/
FoamFile
{
    format      ascii;
    class       volScalarField;
    location    "0.01";
    object      p;
}
// * * * * * * * * * * * * * * * * * * * * * * * * * * * * * * * * * * * * * //

dimensions      [1 -1 -2 0 0 0 0];

internalField   nonuniform List<scalar> 
1800
(
101328.098572749121
101328.039149200675
101328.069257256007
101328.030236646955
101328.045000170285
101328.015687577048
101328.023828485821
101327.997280801937
101327.999602580443
101327.973088074257
101327.972418535981
101327.942882246047
101327.940638496671
101327.908491579539
101327.903002483814
101328.074924702625
101328.040813816362
101328.063627361218
101328.03041762927
101328.043603648257
101328.015967410538
101328.023365878864
101327.997628795216
101327.99927865871
101327.973436757849
101327.972139694306
101327.94315742304
101327.940466471642
101327.908573396751
101327.902792877008
101328.078521934382
101328.04097396892
101328.064302464321
101328.030834638237
101328.043519301762
101328.01628397184
101328.023279878849
101327.99771926424
101327.999246465784
101327.973458582477
101327.972096216414
101327.943122002413
101327.94009442188
101327.908777570541
101327.902758063239
101328.065140290841
101328.038773075634
101328.058402191338
101328.030399460622
101328.041380755167
101328.016391961297
101328.022426664538
101327.997984911184
101327.998813755126
101327.973729325604
101327.971845443783
101327.943411669155
101327.940256035363
101327.908921714203
101327.902672899378
101328.069171747411
101328.039675232125
101328.059960878993
101328.030722507625
101328.041693655876
101328.016461810825
101328.022435117804
101327.998014550714
101327.998724914229
101327.973762204303
101327.971743574046
101327.943364225808
101327.939994135755
101327.90892611786
101327.902651935554
101328.060626775754
101328.036266391748
101328.055034773803
101328.02982309596
101328.03941814923
101328.016434492019
101328.021497316804
101327.998114204151
101327.998336766774
101327.973929587635
101327.971550335424
101327.943578317296
101327.940065822171
101327.90902183119
101327.902570531471
101328.064486545205
101328.038142262623
101328.057230330276
101328.030296162935
101328.040272072642
101328.016508275308
101328.021621416163
101327.998193042615
101327.9982543488
101327.973943267585
101327.971455099178
101327.943546194758
101327.939882936655
101327.909028680413
101327.902581095768
101328.058601019802
101328.034586491995
101328.053287272589
101328.029150367161
101328.038308450734
101328.016222815291
101328.020888081213
101327.998141060118
101327.997972195008
101327.974047581622
101327.971335111652
101327.943659384327
101327.939913066293
101327.90907478203
101327.90249261132
101328.062305482876
101328.037209071917
101328.05587742939
101328.030021781684
101328.039438210777
101328.016505424428
101328.021168398278
101327.998234587198
101327.997985089387
101327.974020868103
101327.971292420989
101327.943645699008
101327.939825395108
101327.909079063611
101327.902539030678
101328.058236147917
101328.034107351734
101328.052893093773
101328.028757468754
101328.037947736259
101328.01603791579
101328.020584023936
101327.998109350854
101327.99780565362
101327.974058336898
101327.971243229636
101327.943686933635
101327.939892447379
101327.909148972161
101327.902546230747
101328.05828074686
101328.034100848439
101328.052893003303
101328.028757311142
101328.037965030264
101328.01606399288
101328.020622306998
101327.998127971106
101327.99779901994
101327.97401965945
101327.97118945753
101327.943625321524
101327.939821066029
101327.909063657047
101327.902455104893
101328.062323506878
101328.037228509071
101328.055900453037
101328.030036295677
101328.03944938627
101328.016504713974
101328.02115899144
101327.998218765657
101327.99796838047
101327.974006407676
101327.971277879798
101327.943625342246
101327.939807021656
101327.909063894374
101327.902522387347
101328.058579602206
101328.034557640189
101328.053258372107
101328.029121155778
101328.038279463974
101328.016194402866
101328.020860002638
101327.998119057127
101327.997946842122
101327.974020202528
101327.97130866634
101327.943640913785
101327.939890414244
101327.909050131348
101327.902472270289
101328.064455105021
101328.038105508153
101328.057193738394
101328.030257593025
101328.040232819549
101328.016470721079
101328.021583920083
101327.998160511052
101327.99822208297
101327.973912888643
101327.971424736679
101327.943506770884
101327.939850246301
101327.908996166676
101327.90254374918
101328.06058538628
101328.036220145077
101328.05498891107
101328.02977653913
101328.039371244246
101328.016389864322
101328.021451779117
101327.998071752663
101327.99829324687
101327.973884694235
101327.971507486203
101327.943541080924
101327.940022267911
101327.908978975451
101327.902531453889
101328.069124115835
101328.039623306337
101328.05990887458
101328.030669588232
101328.041638280614
101328.016409891323
101328.022381047602
101327.997964895665
101327.998674821778
101327.973713791755
101327.97169716307
101327.94331113754
101327.939948851839
101327.908875904526
101327.902601433059
101328.065083958238
101328.038710924477
101328.058339185052
101328.030336953103
101328.041315164199
101328.016331476014
101328.022362831922
101327.997925991993
101327.998753616601
101327.973669989675
101327.971787480099
101327.943354870644
101327.940197897275
101327.9088649521
101327.902613740036
101328.078461729237
101328.040907370145
101328.064235075799
101328.030766817144
101328.043446847601
101328.016217506884
101328.023209812935
101327.997654933773
101327.999181443854
101327.973394199653
101327.972035038401
101327.943055761352
101327.94003193565
101327.90871075631
101327.902692277305
101328.074858682114
101328.040738748474
101328.06355068316
101328.030341552352
101328.043522703258
101328.015894038792
101328.023288307711
101327.997557318522
101327.999206489374
101327.973365341997
101327.972071092794
101327.943085921172
101327.940398825813
101327.908502130042
101327.902724769112
101328.098504962531
101328.039074462649
101328.069178429199
101328.030160736002
101328.044915995531
101328.015612375704
101328.023750169697
101327.997209390785
101327.999531071866
101327.973016792341
101327.972350346754
101327.942809298824
101327.940569553117
101327.908421362459
101327.902927364543
101327.868840493931
101327.865929714782
101327.836272216635
101327.827439150293
101327.800006904014
101327.78682068082
101327.759672182976
101327.743999141341
101327.715838802178
101327.698343491953
101327.669175703195
101327.649499390405
101327.619866779729
101327.597582936505
101327.56773515603
101327.542915043334
101327.512601521259
101327.485712243826
101327.454473257909
101327.425991974829
101327.393522362385
101327.363669222133
101327.3299462953
101327.29872346441
101327.263852741919
101327.231241685411
101327.195285521346
101327.16125150054
101327.124226102635
101327.088939769121
101327.05095586706
101327.014326271135
101326.975298635676
101326.93742267917
101326.897628247592
101326.858405060499
101326.817867895443
101326.77730420079
101326.735937564605
101326.694150893294
101326.652057103245
101326.60944538124
101326.566284996108
101326.522699004621
101326.478653106111
101326.434346216309
101326.389464805266
101326.344355209163
101326.298791744601
101326.252813622064
101326.206568621143
101326.159982536206
101326.112872549871
101326.065755363001
101326.018155239391
101325.970180713543
101325.921998703823
101325.873641558734
101325.824997218093
101325.776079746371
101325.727004779081
101325.677644632655
101325.628157853804
101325.578520195355
101325.528702639291
101325.478631420774
101325.42862329178
101325.378235793105
101325.327913043802
101325.277397190614
101325.226933101905
101325.176237322827
101325.125612356613
101325.07496757881
101325.024821836283
101327.869006243127
101327.865707271121
101327.836404803369
101327.82722125719
101327.800080784378
101327.78664494073
101327.7597280396
101327.743858726797
101327.715924429926
101327.698219949525
101327.669264105207
101327.649392190549
101327.619926628628
101327.597501053999
101327.567769931382
101327.542855615626
101327.512617541186
101327.485666481007
101327.454483340829
101327.425958062668
101327.393526473141
101327.363629213025
101327.329950900181
101327.298687362039
101327.263863476575
101327.231161463496
101327.195279041392
101327.161184439945
101327.124673019309
101327.089403977894
101327.05117425519
101327.014383563263
101326.975626259606
101326.937523347369
101326.89759662388
101326.858509875921
101326.817896353532
101326.777289452002
101326.736003438709
101326.694103452275
101326.652188432941
101326.609484484812
101326.566330735033
101326.522738420463
101326.478599387905
101326.434394323704
101326.390116414666
101326.344607948122
101326.29885232597
101326.252771414991
101326.206547547379
101326.160090570804
101326.113338447482
101326.065741028593
101326.018172673808
101325.970199586372
101325.922129986167
101325.874161414802
101325.825226483168
101325.776034234252
101325.727059487021
101325.678193319764
101325.628408209086
101325.578432013979
101325.528833218486
101325.478791906775
101325.428132802917
101325.378073879416
101325.327976229499
101325.277630523298
101325.226779096978
101325.176106161991
101325.125623337066
101325.07492669647
101325.024809806288
101327.869232719328
101327.865762288071
101327.836604570242
101327.827292707298
101327.800261281925
101327.786719269454
101327.759879833247
101327.743911153331
101327.716008688032
101327.698261634054
101327.669330499557
101327.649430255828
101327.62001566033
101327.597534356973
101327.567855613554
101327.542886760028
101327.512695476253
101327.485690256042
101327.454554578231
101327.425998331542
101327.393596282898
101327.363663021199
101327.330035220264
101327.298709321767
101327.263936589894
101327.231235892832
101327.195405988517
101327.161506933073
101327.124230800226
101327.088764293629
101327.05088179055
101327.014416231235
101326.975340356614
101326.937413297754
101326.897878540709
101326.858367578665
101326.817808477601
101326.777318404827
101326.735821956972
101326.694489856847
101326.652057740968
101326.609293854446
101326.566290366289
101326.522709141878
101326.479134099223
101326.434539314767
101326.389356151645
101326.344310090863
101326.298843346231
101326.253118709225
101326.206775390034
101326.15988639569
101326.112865295145
101326.065680147789
101326.018137642095
101325.970333069024
101325.922248288713
101325.873508576653
101325.825033603236
101325.776414520922
101325.727260625994
101325.677566678831
101325.628129797391
101325.578710822025
101325.528545640438
101325.478631335427
101325.428796099339
101325.378632560154
101325.327861130223
101325.27737058702
101325.226932139849
101325.176496434171
101325.125646759174
101325.075027794068
101325.024816532008
101327.869164853328
101327.865637254494
101327.83666581435
101327.827171828219
101327.800342264905
101327.786609056799
101327.759963815886
101327.743821472279
101327.716078948622
101327.698177593222
101327.669401997162
101327.649350177642
101327.620036296663
101327.597475204675
101327.567858352268
101327.542835792046
101327.512691611832
101327.48563498666
101327.454542798194
101327.425909636993
101327.393587097729
101327.363603827544
101327.330015091342
101327.298688686846
101327.263922346232
101327.231189223094
101327.195291434284
101327.161147493302
101327.124238629898
101327.08886225571
101327.05096374554
101327.014281424956
101326.975373307432
101326.937432669845
101326.897621442011
101326.858323927241
101326.817817845222
101326.777209768727
101326.7359976796
101326.694265671584
101326.651988103389
101326.609366182907
101326.566321965394
101326.522847109809
101326.478661031098
101326.434321103909
101326.389455632845
101326.344357465132
101326.298801700206
101326.252831248028
101326.20638225232
101326.159857375344
101326.112902678127
101326.065635448846
101326.017990698077
101325.970249937905
101325.922089879066
101325.873566174021
101325.824954069249
101325.776029031709
101325.726976381819
101325.677581147131
101325.628143806272
101325.578391189352
101325.528675277805
101325.478651545447
101325.428622165346
101325.378192428121
101325.327893056747
101325.277307678145
101325.226819142801
101325.176175117609
101325.125567998897
101325.074907827657
101325.024826362147
101327.869293602824
101327.865671079169
101327.836716564139
101327.827215568876
101327.800368624739
101327.786666255895
101327.759977922746
101327.743906842341
101327.716202088748
101327.698226473382
101327.669469605346
101327.649404187861
101327.620110800912
101327.59753451946
101327.567927140553
101327.542881270172
101327.512760089026
101327.485779439448
101327.454586957349
101327.426001923188
101327.393643649091
101327.363737434367
101327.330052308345
101327.29873987475
101327.263950892258
101327.231231119338
101327.195406737024
101327.161366950022
101327.124314717017
101327.088947306809
101327.050983698558
101327.014370226476
101326.975426972742
101326.937466216114
101326.897713038503
101326.858381630518
101326.817887895944
101326.777412946147
101326.736048835679
101326.694377863052
101326.652087060953
101326.609440125991
101326.566341130369
101326.522747290059
101326.478873196465
101326.434387602669
101326.389553420042
101326.344412739229
101326.298851609958
101326.252957560617
101326.206784672904
101326.160119573367
101326.113016196832
101326.065792157955
101326.018304427824
101325.97040462814
101325.922135635818
101325.873694356123
101325.825092310537
101325.776384928467
101325.727029943824
101325.677789769004
101325.62843872972
101325.578786345213
101325.528762022572
101325.478743796091
101325.428605543653
101325.378370722581
101325.327966334444
101325.277514988207
101325.227011720155
101325.176375963172
101325.125664598629
101325.07501921682
101325.024807869137
101327.869257859638
101327.865597257973
101327.836700862521
101327.827145786083
101327.800373568272
101327.78658890519
101327.759991220009
101327.743794892755
101327.716100495352
101327.698131808269
101327.669412930845
101327.649343806785
101327.620080498207
101327.597431326023
101327.56790903036
101327.542810500163
101327.512746785971
101327.485643145774
101327.454589547677
101327.425964870141
101327.393637913294
101327.363618451942
101327.330047914409
101327.298671638215
101327.263956698705
101327.231206844037
101327.195369643188
101327.161209934129
101327.124335163331
101327.088951101963
101327.050992338351
101327.014328614998
101326.975425940982
101326.937449857549
101326.897698475324
101326.858375260214
101326.817830729095
101326.777221345837
101326.735907304232
101326.694264859732
101326.652045065392
101326.609349730134
101326.566215446379
101326.5227542332
101326.478755871853
101326.43436519838
101326.389559724892
101326.344370286781
101326.298767241518
101326.252872920159
101326.206546734902
101326.159894912824
101326.112981390514
101326.065707456131
101326.018092004786
101325.970230558145
101325.922105440899
101325.873681506651
101325.825018394215
101325.776099571274
101325.727013567113
101325.67768248386
101325.628163469388
101325.578477387273
101325.528669621272
101325.478675356819
101325.428542926384
101325.378267619424
101325.327884076716
101325.277405865345
101325.226687365284
101325.176139997711
101325.125510389975
101325.074894112928
101325.024830731258
101327.869333567913
101327.865618788157
101327.83677235659
101327.82718198339
101327.800423814304
101327.786646420689
101327.760033299041
101327.743888088226
101327.716196781243
101327.69838380588
101327.669565014934
101327.649424197152
101327.620131787495
101327.597511521686
101327.567961215696
101327.542958436694
101327.512774252158
101327.485702469668
101327.454624335907
101327.425990338059
101327.393657746696
101327.36366013033
101327.330089728479
101327.298758177712
101327.263984098972
101327.231233285289
101327.195403265039
101327.161303548986
101327.124369460274
101327.088969971475
101327.051010294308
101327.014335540734
101326.975435879009
101326.937449802412
101326.897707331154
101326.858394857525
101326.817892014878
101326.777378610699
101326.73605189145
101326.694293423425
101326.652105955145
101326.609462627239
101326.566460424961
101326.522770542972
101326.478809542896
101326.43438444144
101326.389593115353
101326.344430985599
101326.298916522763
101326.252943116968
101326.206587523528
101326.159951888942
101326.11300027126
101326.065727887282
101326.0181102403
101325.970248028723
101325.922103757621
101325.87369457577
101325.825054002213
101325.776128577563
101325.727046503132
101325.677733506993
101325.628192671604
101325.578521132295
101325.528680215139
101325.478708371505
101325.428563692272
101325.378283197308
101325.327931093969
101325.277538811642
101325.227273061726
101325.176572306591
101325.125906926027
101325.075099073831
101325.024841418926
101327.869293922558
101327.8655538819
101327.836723145476
101327.827117649853
101327.800391296463
101327.786573917198
101327.760000766677
101327.74379851931
101327.716157890376
101327.698147008792
101327.669435096483
101327.649309674962
101327.620117756087
101327.597472086738
101327.567941741421
101327.542831197294
101327.512759880454
101327.485668585781
101327.454607512234
101327.425946381438
101327.393653173989
101327.363646062789
101327.330079009727
101327.298692704368
101327.263981369266
101327.231203550895
101327.195397578995
101327.161259125438
101327.124372617502
101327.088958123539
101327.051020572442
101327.014337614513
101326.975444065145
101326.93745069849
101326.897713014099
101326.858392689755
101326.817861711272
101326.777257758877
101326.735926618043
101326.694277799965
101326.652069807868
101326.609391606704
101326.566288017319
101326.522757787301
101326.478789236135
101326.434389569433
101326.389590260413
101326.344399267356
101326.298801110417
101326.252877988867
101326.206581818231
101326.159948633111
101326.112985567117
101326.065701164931
101326.018112919104
101325.970246432989
101325.92209835969
101325.873683213023
101325.825005181468
101325.776128466212
101325.727010459494
101325.677682291935
101325.628203230619
101325.578521898366
101325.528682651595
101325.478705560905
101325.428562499117
101325.378309187203
101325.327952289663
101325.277431434792
101325.226860629962
101325.176242574074
101325.125599185514
101325.074946292356
101325.02480494784
101327.869356232724
101327.865595775002
101327.836785610503
101327.827164123621
101327.800442943611
101327.78663169482
101327.760050014695
101327.743863976095
101327.716187695551
101327.698185896559
101327.669512212204
101327.649497659411
101327.620190894217
101327.597577913752
101327.56797832009
101327.542864396077
101327.512781143392
101327.485694900737
101327.454632938141
101327.426025933586
101327.393663597948
101327.363663468102
101327.330083163644
101327.298707033158
101327.26398694067
101327.231224083051
101327.195405996375
101327.161284564805
101327.124382706694
101327.088971745121
101327.051029346985
101327.014343454546
101326.975448846671
101326.937452526254
101326.897716930849
101326.858399385106
101326.817883207987
101326.777329102537
101326.735962728591
101326.694286784434
101326.652096189544
101326.609439011489
101326.566308829468
101326.522764222362
101326.47878632661
101326.434391143441
101326.389589693674
101326.344405990341
101326.298814221664
101326.252885957598
101326.206583973588
101326.159956146861
101326.112992405062
101326.065720369079
101326.018115313331
101325.970249035003
101325.922097932329
101325.873698925963
101325.825057605587
101325.776141063106
101325.72704991333
101325.677745567198
101325.628213147123
101325.578530230065
101325.52867148185
101325.47867415403
101325.428545063201
101325.378280655874
101325.327915889415
101325.277451370115
101325.226834477056
101325.176238694854
101325.125582226698
101325.074949808899
101325.024872735012
101327.869387129365
101327.86561328455
101327.836811030997
101327.827163543712
101327.800425448702
101327.786570850556
101327.759997758971
101327.743797375224
101327.716159088188
101327.698176211226
101327.66947473865
101327.649345846919
101327.620121576212
101327.597482625919
101327.567949175093
101327.542844426396
101327.512771338486
101327.485668575944
101327.454617312134
101327.425961106128
101327.393655541964
101327.363649280815
101327.330082035653
101327.298704119006
101327.26398404596
101327.231204990574
101327.195398840588
101327.161267701173
101327.124387320029
101327.088971424862
101327.051032854215
101327.014344274881
101326.975451457576
101326.937453073187
101326.897718353765
101326.85839770679
101326.817877389403
101326.777302368995
101326.735965970685
101326.694288113373
101326.652089700307
101326.609415347732
101326.566323085121
101326.522758606297
101326.478788123568
101326.43439362249
101326.389587827958
101326.344402103117
101326.298815432281
101326.252883685855
101326.206573895455
101326.159941931415
101326.112969283175
101326.065683288762
101326.018104289411
101325.970233374028
101325.922087165949
101325.873670688627
101325.825020001503
101325.776135132168
101325.727029836096
101325.677704682865
101325.628221952618
101325.578566346376
101325.528727492332
101325.478706472422
101325.428547681964
101325.378297176183
101325.327920567725
101325.277498160838
101325.226898132227
101325.176304489796
101325.125628585723
101325.07497338047
101325.024821214887
101327.869294162258
101327.865518285151
101327.836718503808
101327.827085079422
101327.800381185632
101327.786584262649
101327.760023362091
101327.743797485236
101327.716132328584
101327.698186813126
101327.669480566707
101327.649341027907
101327.620124819936
101327.597447491135
101327.567917143024
101327.542838287351
101327.512766720334
101327.485682769911
101327.454616194649
101327.425957331492
101327.393660790971
101327.363650523213
101327.330072761877
101327.298704476023
101327.26398106401
101327.231214573942
101327.195406376457
101327.161279322303
101327.124388710828
101327.088973177248
101327.051035289245
101327.014345164978
101326.975452260245
101326.937453526829
101326.897715610176
101326.85839333586
101326.817877240945
101326.777301340189
101326.735958419915
101326.694279556978
101326.652082646469
101326.609406001109
101326.566309939502
101326.522747703682
101326.478783000552
101326.434390083523
101326.389583160126
101326.344398495261
101326.298813231377
101326.252885910493
101326.206575520569
101326.159950952278
101326.112987346554
101326.065704533772
101326.01810999868
101325.970242607931
101325.922098771975
101325.873699181509
101325.825029403873
101325.776145286058
101325.727033877687
101325.677700744593
101325.62820525725
101325.578519621209
101325.528659878459
101325.478662687368
101325.428516928529
101325.378262729195
101325.327891845969
101325.277412794705
101325.226857019443
101325.176245066221
101325.125600086612
101325.074955193093
101325.024809473267
101327.869338522403
101327.865581967664
101327.836774763142
101327.827159753695
101327.800448483511
101327.786646947483
101327.760042382681
101327.743876502354
101327.716178180694
101327.698155218808
101327.669470082546
101327.649351366461
101327.620125625006
101327.597502113378
101327.567962652902
101327.542918632607
101327.512770494985
101327.485682714178
101327.454610028712
101327.425971841294
101327.39365176615
101327.363649904713
101327.330081000546
101327.298691848191
101327.263972671863
101327.231199663322
101327.195400390046
101327.161285316513
101327.124384805429
101327.088972805519
101327.051033513475
101327.014351373102
101326.975445119009
101326.937452932587
101326.897731597448
101326.858408820015
101326.817885518292
101326.777322371316
101326.73601195919
101326.694270955675
101326.65208371167
101326.609421169996
101326.566332264469
101326.522782981978
101326.478785826301
101326.434394192285
101326.389579526629
101326.344395969936
101326.298807594678
101326.252890102478
101326.206635993542
101326.15998966909
101326.112988868961
101326.06571527406
101326.018142814806
101325.970251623381
101325.922079530254
101325.873676110015
101325.825019167372
101325.776130552593
101325.727040207872
101325.677782797051
101325.628224421147
101325.578546202378
101325.528705270059
101325.478722452739
101325.428512633196
101325.378281729834
101325.327913655477
101325.277477136871
101325.226933027458
101325.176319742022
101325.125648605244
101325.074983898026
101325.024823364205
101327.869273039134
101327.865529822448
101327.836700645013
101327.827093144981
101327.800361401692
101327.786533994513
101327.759984805743
101327.743750531547
101327.716118315206
101327.698122270129
101327.669424080988
101327.649322200465
101327.620072725229
101327.597458258533
101327.567924718547
101327.542805905541
101327.512751589515
101327.485632854165
101327.45459492119
101327.425956079373
101327.393639538655
101327.363636162598
101327.330068769108
101327.298682579465
101327.263962817393
101327.23119135556
101327.195389360219
101327.161268809141
101327.124373512095
101327.088951915473
101327.051023972614
101327.014337959612
101326.97542400338
101326.937436969296
101326.897711166399
101326.858384324281
101326.817866416925
101326.777272248655
101326.735892780052
101326.694226919048
101326.652057171435
101326.60940505148
101326.566309578266
101326.52273145887
101326.478779299607
101326.434386366644
101326.389573981156
101326.34439266329
101326.298788045213
101326.252847581884
101326.206551521114
101326.159913843381
101326.112964530708
101326.065687678682
101326.018082953873
101325.970213187917
101325.922058614466
101325.873662018945
101325.825004468454
101325.776116134701
101325.727003401305
101325.677674506849
101325.62819737989
101325.578528825878
101325.5286818405
101325.478669224758
101325.428447131373
101325.378214854049
101325.327850769114
101325.277429778231
101325.22687917274
101325.176228715427
101325.125612240212
101325.074941412764
101325.02482177192
101327.869297351674
101327.865586959932
101327.83673804994
101327.827148834505
101327.800391834666
101327.786613970413
101327.75998194846
101327.743864388074
101327.716185575235
101327.69835250912
101327.669474771668
101327.649369070277
101327.62009801509
101327.597473271191
101327.567912244791
101327.542863396462
101327.51276052522
101327.485769605788
101327.454598431781
101327.425966362571
101327.393637361209
101327.36363886841
101327.330082112254
101327.298777677803
101327.26401538268
101327.231295107194
101327.195392936614
101327.161290417484
101327.12438928445
101327.08904137733
101327.05102243177
101327.014367532684
101326.975503694892
101326.937423710348
101326.89771596207
101326.858382438979
101326.817870593572
101326.777333049686
101326.736067506252
101326.694418350293
101326.65212256278
101326.609429815697
101326.56633145659
101326.522760909691
101326.478775078242
101326.434397350604
101326.389566175523
101326.344406589997
101326.298889512138
101326.252961911479
101326.206601328755
101326.159991321852
101326.112952394949
101326.065714018521
101326.018123989357
101325.970263082214
101325.922040985388
101325.873657805088
101325.825022318968
101325.776232857272
101325.727105038488
101325.67777077778
101325.62818230789
101325.578547157813
101325.528714980595
101325.478833031128
101325.429030009254
101325.378606287253
101325.328197741648
101325.277522362201
101325.226981451473
101325.176356320808
101325.125662620441
101325.075004655155
101325.024815333585
101327.869215728671
101327.865552319141
101327.836658221466
101327.82709983697
101327.800322966315
101327.786525936681
101327.759915908784
101327.743767684122
101327.716078353609
101327.698088548568
101327.669404651664
101327.649272800219
101327.620039966394
101327.597409684488
101327.56788648061
101327.542816820089
101327.512709246424
101327.485626299851
101327.454573425945
101327.425911111684
101327.393621640294
101327.363597677089
101327.330034397615
101327.298653821868
101327.263940222416
101327.231155315865
101327.195364128158
101327.161252481921
101327.124348473197
101327.088906952267
101327.050973018835
101327.014326308854
101326.975392056236
101326.937374445348
101326.89767115732
101326.858350289374
101326.817831521723
101326.777237539849
101326.735844540977
101326.694185965636
101326.652068126801
101326.609377294808
101326.566285334484
101326.522723832735
101326.478756650162
101326.434385726243
101326.389538293108
101326.344346916725
101326.298769949106
101326.252805706448
101326.206573173971
101326.159922336243
101326.112902793902
101326.065660581982
101326.018088642712
101325.970207259263
101325.921982464584
101325.873588425689
101325.824949141708
101325.776096869318
101325.727003172957
101325.677692478333
101325.628101555645
101325.578467806175
101325.528665303063
101325.478575963294
101325.428328846203
101325.37814709649
101325.327819650542
101325.277358772088
101325.226827064384
101325.176201934926
101325.125611394498
101325.074921644642
101325.024834525306
101327.869241756314
101327.865621542864
101327.836662996517
101327.827164857445
101327.800317778281
101327.786631172639
101327.75997926548
101327.743838598311
101327.71611245544
101327.698187991351
101327.669438602898
101327.649504615169
101327.620094049707
101327.597554011634
101327.567886298086
101327.542840903174
101327.512711207833
101327.485657434881
101327.454578906254
101327.426047056593
101327.393628705773
101327.363750703327
101327.330034801416
101327.298724400214
101327.263931805079
101327.231213564926
101327.1953555566
101327.161279506516
101327.124369702113
101327.089016115831
101327.051099256845
101327.014356238244
101326.975508056319
101326.937656488721
101326.897650683517
101326.858391314643
101326.817839215742
101326.777329362259
101326.73607636118
101326.694372778074
101326.652092865203
101326.609430486802
101326.566330040121
101326.522725545525
101326.478878317226
101326.434370048562
101326.389724165492
101326.344357727532
101326.298792729795