/*--------------------------------*- C++ -*----------------------------------*\
  =========                 |
  \\      /  F ield         | OpenFOAM: The Open Source CFD Toolbox
   \\    /   O peration     | Website:  https://openfoam.org
    \\  /    A nd           | Version:  9
     \\/     M anipulation  |
\*---------------------------------------------------------------------------*/
FoamFile
{
    format      ascii;
    class       surfaceScalarField;
    location    "0.01";
    object      phi;
}
// * * * * * * * * * * * * * * * * * * * * * * * * * * * * * * * * * * * * * //

dimensions      [1 0 -1 0 0 0 0];

internalField   nonuniform List<scalar> 
3490
(
1.39086627898499917e-07
4.55876663210600437e-09
1.36019448118845504e-07
3.49271627892002874e-09
1.33444562032694983e-07
3.58368393284614951e-09
1.32772652508929187e-07
2.41414817811427733e-09
1.31727948935670839e-07
1.73023730287137591e-09
1.30896711383173771e-07
9.67886604216628039e-10
1.30212783104474933e-07
6.20178419187083306e-10
1.29797868857305531e-07
2.91670618334107885e-10
1.29441765382905026e-07
2.18195534611181344e-10
1.29224769462772642e-07
7.6275175382093589e-11
1.28998095432534782e-07
8.60071479698723279e-11
1.28850002160486062e-07
7.97397989189336288e-12
1.28667706719543653e-07
4.29828754100369018e-11
1.28547987193396839e-07
-1.87900725428611328e-11
4.89428491819304071e-12
1.28405507983102679e-07
1.44601534868631775e-07
3.60101335087709227e-09
1.45477019260166079e-07
3.02957696673520843e-09
1.46856245274515084e-07
3.19523771275099195e-09
1.48866496654343755e-07
2.25143087838642182e-09
1.49679816372004107e-07
1.74809953088646337e-09
1.49822019304504287e-07
1.03570040699391359e-09
1.49664059902906217e-07
7.4162996491782395e-10
1.49451474680737673e-07
3.89283334874563894e-10
1.49226066271707804e-07
3.07831052675357219e-10
1.49014396874995669e-07
1.4770797324287164e-10
1.48835871888376287e-07
1.23962211859575275e-10
1.48663666607525639e-07
4.00786985314539245e-11
1.48507413404817808e-07
5.99263203485889176e-11
1.48353446078046418e-07
-3.33104832479887098e-12
1.14365372737546684e-11
1.48209318449022081e-07
1.45082788442211154e-07
2.16188305011997192e-09
1.46256161409261688e-07
2.26858108903329566e-09
1.47657533801739724e-07
2.79111279347606244e-09
1.4971035297309002e-07
2.06857442102460284e-09
1.50508126877095676e-07
1.80776227130492369e-09
1.50617396755489106e-07
1.14897134525772519e-09
1.50443406601011417e-07
8.83653907856572259e-10
1.50206994954998276e-07
5.12090158006176803e-10
1.49985465444169991e-07
3.93944442761024779e-10
1.49785592988044919e-07
2.07426563590572333e-10
1.49590096555599147e-07
1.78906682357172236e-10
1.49409107217704649e-07
8.0971697406212343e-11
1.4925241112793411e-07
7.73147389958979253e-11
1.4908914655979753e-07
2.1425913748060451e-11
3.48525447252343917e-11
1.48928146640589996e-07
1.44089612427228765e-07
1.71611120922303979e-09
1.44909656897463715e-07
1.86235850120357065e-09
1.46446502324533693e-07
2.25311206525290374e-09
1.48621100782775264e-07
1.75687802147007397e-09
1.49722409209157234e-07
1.55421233623277282e-09
1.50059063826884201e-07
1.03098693229068909e-09
1.50089206547622121e-07
8.20450884655734675e-10
1.49993711511131653e-07
4.93739280902979299e-10
1.49855624964584499e-07
3.96571838574554634e-10
1.49700938965710454e-07
2.21953915054007383e-10
1.49560055406005826e-07
1.79238960380168423e-10
1.49408674236949996e-07
9.22578138017632757e-11
1.492604811079778e-07
8.62015442803368828e-11
1.4911444976981857e-07
2.89507274242946119e-11
3.63936990570711641e-11
1.48975325256163314e-07
1.44307403988454126e-07
1.05259474368052608e-09
1.45191418173838557e-07
1.39217795354144869e-09
1.46657196163184269e-07
1.78613807413228382e-09
1.48804913304989105e-07
1.4717858236325942e-09
1.49816439546807943e-07
1.38988884947866372e-09
1.50105028623424325e-07
9.60674530244646803e-10
1.50097843733321829e-07
7.94407126804271026e-10
1.49976535822365813e-07
5.01147635078527546e-10
1.49839635098515699e-07
3.98000037204764642e-10
1.49686814359736715e-07
2.34615878600603046e-10
1.49531213957075758e-07
1.94290222487120195e-10
1.49379919535000623e-07
1.03459902547260359e-10
1.49238879972429228e-07
8.79375250556124334e-11
1.49087758250514984e-07
4.15681659701609e-11
4.02862290477348402e-11
1.4894628506018507e-07
1.43840001549182785e-07
8.56553073562872071e-10
1.44540047544363228e-07
1.10652666794406736e-09
1.45936006309528086e-07
1.38919649031780341e-09
1.48096570118515243e-07
1.16825993429091687e-09
1.49246632912355124e-07
1.08004808148290544e-09
1.49657459304227208e-07
7.65061588676866494e-10
1.49783127097479459e-07
6.34536799488617896e-10
1.49763140546653644e-07
4.06985152014785544e-10
1.49692406143462531e-07
3.33210568622836031e-10
1.49588678767597774e-07
1.98177865713154963e-10
1.49482056174693616e-07
1.60365444819457141e-10
1.49354370810472114e-07
9.10552716827706172e-11
1.49224781402126523e-07
7.82266436208648414e-11
1.49091593156192295e-07
3.6254904817796253e-11
3.76018271136750754e-11
1.48956699012087685e-07
1.43997060537229504e-07
5.03474699869710956e-10
1.44760495064803476e-07
7.57448034174704469e-10
1.46179412746068301e-07
9.69298567190137141e-10
1.4834193968352926e-07
8.63562808437442867e-10
1.4942084240585648e-07
8.42195075050812287e-10
1.49784567712477878e-07
6.16830102447982045e-10
1.49855441227418763e-07
5.29521248655735069e-10
1.49797203604016624e-07
3.5108416471408635e-10
1.49710105454285335e-07
2.84788072426481792e-10
1.49590623791327973e-07
1.77498206459967783e-10
1.49465607574001036e-07
1.44839001699080553e-10
1.49335049953212576e-07
8.15281261133869772e-11
1.49206893454096113e-07
6.7087804884611979e-11
1.4906878039258637e-07
3.58706962848366154e-11
3.02752027718975025e-11
1.4893853337573935e-07
1.43779093089181611e-07
3.6839388709923622e-10
1.44432723449502897e-07
5.18409103855092093e-10
1.45740762483229456e-07
6.60293976518992112e-10
1.47880998954970904e-07
5.78052815645357124e-10
1.49019753081828145e-07
5.40550983010542536e-10
1.49451898409659075e-07
3.98375351330229613e-10
1.49610188770102048e-07
3.3649935432249844e-10
1.49623017026201083e-07
2.23966040587239911e-10
1.49587100818385704e-07
1.85154884446027267e-10
1.49511549389644421e-07
1.12888164397555278e-10
1.49424788048975738e-07
9.10627103634113661e-11
1.49313521525495871e-07
5.27145417360814303e-11
1.4919721329012701e-07
4.41058295192164103e-11
1.49070932097603411e-07
2.3659697214675892e-11
2.389808111151396e-11
1.48939739815863288e-07
1.43874635590683438e-07
1.37787340834435464e-10
1.4458678332777404e-07
2.2083189419731416e-10
1.45969796650108829e-07
2.76389181080123791e-10
1.48134058662540112e-07
2.69670657620246308e-10
1.49234577284130717e-07
2.78522804040984397e-10
1.49630262550920944e-07
2.16996425485880978e-10
1.49733811831032533e-07
1.9841669957231144e-10
1.49704979700118953e-07
1.38562029486925799e-10
1.49640606095180546e-07
1.13995646383121497e-10
1.49537837448575668e-07
7.55041451648457024e-11
1.49428829452940409e-07
5.95405277999254726e-11
1.4930867964165994e-07
3.27918332281664844e-11
1.491888004487694e-07
2.47023999423587222e-11
1.490588770347731e-07
1.50977335395200903e-11
1.21888447554491855e-11
1.4893302403583694e-07
1.43784688108537101e-07
-2.85786517868691752e-12
1.44424172902679344e-07
-4.00755860815598503e-12
1.45704070701154188e-07
-4.4884364130343447e-12
1.47831145890948977e-07
-3.35727141766027931e-12
1.48947438241523601e-07
-1.64537256037234298e-12
1.49378200903884647e-07
-5.99436118342709776e-13
1.49541723403781854e-07
-2.40032987149651091e-14
1.49565685605785999e-07
2.66664150600123744e-13
1.49543142819893896e-07
9.90964504832288995e-13
1.49477517993227901e-07
9.80596147537855993e-13
1.49395798506816372e-07
7.37653895135294193e-13
1.49288123319991395e-07
4.02211380659115413e-13
1.49173720102968686e-07
-1.69453417207527882e-13
1.49051482393985044e-07
-1.14215377553813076e-12
-1.88106935748376332e-12
1.48927997271181024e-07
1.43783018562069832e-07
-1.41823668878519324e-10
1.44425820211388012e-07
-2.3216188693705922e-10
1.45711388144746792e-07
-2.91041415733533847e-10
1.47844161937029151e-07
-2.82046292311828456e-10
1.48964227284096054e-07
-2.85471744954756907e-10
1.49395597639677155e-07
-2.18726386595529042e-10
1.49557004818696845e-07
-1.9631284200922944e-10
1.49577373451354602e-07
-1.34417373668755507e-10
1.49552234460849176e-07
-1.09405794846599959e-10
1.49485007473367477e-07
-7.19305969212731171e-11
1.49402396390296831e-07
-5.71640208439749964e-11
1.49294405685435049e-07
-3.1662569659769196e-11
1.49179580062699233e-07
-2.46097476378528697e-11
1.49055502835031021e-07
-1.55335662631430234e-11
-1.32643284941123568e-11
1.48929340226061538e-07
1.43874852540464779e-07
-3.72618233739197969e-10
1.44588556356795215e-07
-5.31280622009146353e-10
1.45974097542350129e-07
-6.77473615459898165e-10
1.48140449223054072e-07
-5.92475615510412328e-10
1.49241284746312872e-07
-5.4770521803220905e-10
1.49635481486666619e-07
-3.98540747641198926e-10
1.49736546855840059e-07
-3.31864989944642621e-10
1.49705260197999609e-07
-2.17332550464795526e-10
1.49639564074986466e-07
-1.79212022327153407e-10
1.49535951227416677e-07
-1.08441509929982982e-10
1.49426844859013324e-07
-8.85595227061869247e-11
1.49306804313430201e-07
-5.16670177861729055e-11
1.49186821111836205e-07
-4.38819449983364812e-11
1.49056527679944886e-07
-2.36988411369000645e-11
-2.47302319024190538e-11
1.48930457661991917e-07
1.43779512733961207e-07
-5.08064054478250009e-10
1.44432605431669566e-07
-7.69725159759351173e-10
1.45739071911201303e-07
-9.84841223175191862e-10
1.47877684864382023e-07
-8.76289751209204056e-10
1.49015709437786589e-07
-8.48578516551782746e-10
1.49448501908102216e-07
-6.17603037494816322e-10
1.49608060412218515e-07
-5.26109838497782691e-10
1.49622096224759708e-07
-3.45610188825046837e-10
1.49586456649974292e-07
-2.79073869554647377e-10
1.49510627751029166e-07
-1.72726971478056676e-10
1.49423271401987839e-07
-1.41694919276886955e-10
1.49311489178749422e-07
-7.9919672393589504e-11
1.49195078572440137e-07
-6.67171980155578728e-11
1.49069426189903681e-07
-3.64949227461422119e-11
-3.1882263067809609e-11
1.48939052491081921e-07
1.4399739350359686e-07
-8.61402251017358055e-10
1.44761752632490999e-07
-1.11966173432374822e-09
1.4618159033947712e-07
-1.40559883248055289e-09
1.4834409622551511e-07
-1.18089736276392036e-09
1.49421565959025403e-07
-1.08491017170775104e-09
1.49782925866177485e-07
-7.6339170780801486e-10
1.49851981718164846e-07
-6.2923832040968855e-10
1.49793243596965559e-07
-4.0094363128895109e-10
1.49706811020436875e-07
-3.28096706954458824e-10
1.4958831746995581e-07
-1.94330555784121655e-10
1.49463996917783683e-07
-1.57854705255586245e-10
1.49333246085647575e-07
-8.91920291802253293e-11
1.49204554864339513e-07
-7.72613021207772377e-11
1.49066169788243485e-07
-3.65471580395387809e-11
-3.91782143592024803e-11
1.48935951021933983e-07
1.43840020233121403e-07
-1.05736796833804597e-09
1.4453929141116196e-07
-1.40443926467752022e-09
1.45934058396402195e-07
-1.80124186059725469e-09
1.48094218097132788e-07
-1.48392614578683111e-09
1.49244506938471549e-07
-1.39491836444138946e-09
1.49655525409431584e-07
-9.5912710405647499e-10
1.49781160699057967e-07
-7.88996657788353522e-10
1.49761146800794332e-07
-4.94997050021886204e-10
1.49690366836326229e-07
-3.9275900837685133e-10
1.49586297335112405e-07
-2.3034708350468237e-10
1.49479038964856518e-07
-1.91065400130460393e-10
1.49351306738507615e-07
-1.01473350616053083e-10
1.49221997949193406e-07
-8.71770695814883098e-11
1.49088554160739949e-07
-4.1530610595573467e-11
-4.14351585684965337e-11
1.48953307577255441e-07
1.44307381195231488e-07
-1.72075032959603983e-09
1.45191069351786791e-07
-1.87418134809327533e-09
1.4665590339725057e-07
-2.26715650362137519e-09
1.48802484173041731e-07
-1.76778313454326569e-09
1.4981307527232554e-07
-1.5582398080076482e-09
1.50101089128666271e-07
-1.02878611521816794e-09
1.50093714218646986e-07
-8.14759650660462959e-10
1.4997221238487879e-07
-4.87299037597620822e-10
1.49835262988158657e-07
-3.9118604565055494e-10
1.49682585102134446e-07
-2.17733684908149744e-10
1.4952787472946809e-07
-1.76811364323423426e-10
1.49376450835183371e-07
-9.00508198771426217e-11
1.49234709905899595e-07
-8.46498610969568029e-11
1.49084493386680945e-07
-2.97297119233402924e-11
-3.88449846737890021e-11
1.48944411508409287e-07
1.44089418821638153e-07
-2.16619890037403069e-09
1.44908559996382623e-07
-2.27936375234180811e-09
1.46443605565855047e-07
-2.80321232655531027e-09
1.48615762204741518e-07
-2.07692188101025057e-09
1.4971504661221839e-07
-1.80971464832181451e-09
1.50050926441376184e-07
-1.14592383293469021e-09
1.50081616981121191e-07
-8.78414261260941638e-10
1.49987372408548162e-07
-5.06792374938862147e-10
1.49850496410488082e-07
-3.89659491947690151e-10
1.49696539066962867e-07
-2.03825887619492925e-10
1.4955525842914387e-07
-1.75975135198990432e-10
1.49404301968612522e-07
-7.90835213647951643e-11
1.49257920933656148e-07
-7.74720150185670237e-11
1.49112954032634312e-07
-2.31658321082096129e-11
-3.64785020839732958e-11
1.48973107022910743e-07
1.45082237968201342e-07
-3.60463190903985529e-09
1.46254655214036042e-07
-3.03924807378153073e-09
1.47654681642145724e-07
-3.20582818086747097e-09
1.49705379963997743e-07
-2.25755159446615428e-09
1.50500695902218663e-07
-1.74755791110364144e-09
1.50607672289596511e-07
-1.03028798443086539e-09
1.50432989737888723e-07
-7.35593737600274652e-10
1.50197136002859631e-07
-3.84424496810939347e-10
1.49976861905108192e-07
-3.04678957824150353e-10
1.49778320826956019e-07
-1.45317025405339545e-10
1.4958556472132175e-07
-1.23650613898754631e-10
1.49406945928628976e-07
-4.04428824878372442e-11
1.49249791198723511e-07
-5.95086352462182745e-11
1.49086606105140178e-07
1.62745032550579982e-12
-1.41822579951590719e-11
1.4892684274261642e-07
1.44600159665077385e-07
-4.56084574994547051e-09
1.45471600416197075e-07
-3.49814656448229481e-09
1.46846092816223745e-07
-3.58929681131869388e-09
1.48852902932473748e-07
-2.41674650605561853e-09
1.49665206579194423e-07
-1.72875053525038225e-09
1.49808807572124543e-07
-9.63849757620382222e-10
1.4965317509607087e-07
-6.16373612618328524e-10
1.49442923613695893e-07
-2.89021519900415002e-10
1.49219660703409107e-07
-2.17057795147166958e-10
1.49010539555753595e-07
-7.63016223617642389e-11
1.48833415590618038e-07
-8.69666479792488189e-11
1.48661810260782899e-07
-8.81111140100843172e-12
1.48506455048641558e-07
-4.33378378615557324e-11
1.48351226513076684e-07
1.84729892710570364e-11
-5.61005245291753156e-12
1.48205196862729863e-07
1.39084717714387068e-07
1.36012330103273082e-07
1.33432115092345431e-07
1.32757657595380124e-07
1.31714331743250811e-07
1.30887155033175322e-07
1.30207135392381987e-07
1.29795000182962669e-07
1.29440168752702276e-07
1.29223280273335204e-07
1.28995778546575023e-07
1.28846977324860387e-07
1.28664454187613932e-07
1.28544547235237926e-07
1.28401484648953149e-07
1.28304923090719235e-07
-8.8863360274834757e-12
1.28164422196863405e-07
3.16809009336046007e-11
1.28060317961935542e-07
-4.01676031962898959e-12
1.27927824949881411e-07
2.50919897406955339e-11
1.27827547797554943e-07
-6.35871153013466039e-12
1.27702824393028038e-07
1.88887424103120729e-11
1.27606197412502065e-07
-8.38833387850898566e-12
1.27488081333487022e-07
1.39784403131089961e-11
1.27393965441728702e-07
-9.13944446103358874e-12
1.27281515936686278e-07
1.01370504794147302e-11
1.27189046083190173e-07
-8.88773091728520537e-12
1.27080839777395559e-07
7.84998247975653031e-12
1.26989392414138435e-07
-7.88200637252981431e-12
1.26885009567485599e-07
6.11223973081638839e-12
1.26794808328722909e-07
-6.97842514590526231e-12
1.26693908363353914e-07
4.8378563868643239e-12
1.26605272681691582e-07
-6.28007372917871092e-12
1.26507464233631167e-07
4.06874390071252211e-12
1.26420401765473245e-07
-5.47986945052771926e-12
1.26325566207591976e-07
3.52462812106055377e-12
1.2624054124220947e-07
-5.03813370361908621e-12
1.26149866825521399e-07
1.89357954447110241e-12
1.26065929873969541e-07
-3.54625155616086972e-12
1.25977535352592816e-07
2.24090651168823289e-12
1.25894168335366181e-07
-1.44066664025044747e-12
1.25809571524068858e-07
1.16325174486719861e-12
1.25733671777119169e-07
-6.14354658622066669e-12
1.25650798824343528e-07
2.24739527336879538e-12
1.25570386536630236e-07
1.21992411091030938e-12
1.25490541588237354e-07
2.11151286549549261e-12
1.25419633022091559e-07
-5.35090254164010359e-12
1.25346055536301403e-07
-1.18574236984331578e-12
1.25272403835399232e-07
3.99838608895477326e-13
1.25201239973485044e-07
-5.5893326795387167e-13
1.25132309733573646e-07
-1.23959939020644443e-12
1.25063409921622339e-07
2.99953938779650831e-13
1.24998018832445827e-07
-1.61941400717780297e-12
1.24932926499983346e-07
-3.12736954806409583e-13
1.24871068181017335e-07
-1.92143087622701614e-12
1.24808853216715218e-07
7.37933952866193268e-14
1.24745894278194932e-07
2.472634442787924e-12
1.24688982107487449e-07
-1.8993206296415689e-12
1.24633634123332681e-07
-1.77506430973798959e-12
1.24580244539135551e-07
-2.02802747639654901e-12
1.24526701030499183e-07
-1.54974257316404061e-13
1.24472725555818216e-07
2.01410246002784864e-12
1.24419887849875046e-07
2.62763565643884034e-12
1.24374341270638533e-07
-2.89906980992852164e-12
1.24330568318978842e-07
-2.89575652927805674e-12
1.24286048154037435e-07
-3.58258401847324242e-13
1.24242276289252491e-07
6.93595117466783066e-13
1.24201475964640498e-07
-4.63277765880978314e-13
1.24160372695097359e-07
1.66102742020305924e-12
1.24124836488165253e-07
-2.07989179432964597e-12
1.24089827208091884e-07
-7.70834005098392374e-13
1.24056484802187018e-07
-5.97209982061408268e-13
1.24023161159660258e-07
1.22343252144712842e-12
1.23991846311012459e-07
1.05901025813056715e-12
1.23968691127247623e-07
-5.25651636670295621e-12
1.239442377165962e-07
-2.11576181036171883e-12
1.23915515156141653e-07
3.99421787429488902e-12
1.23890575555735194e-07
2.05035239322638297e-12
1.23873054477563235e-07
-3.5354267681340194e-12
1.23854628388154986e-07
-8.01104432025486694e-13
1.23835666118943362e-07
1.55854030908431086e-12
1.23820409949015589e-07
-3.29793655007299506e-13
1.23811329589762252e-07
-4.69525801450423236e-12
1.23798060978731338e-07
1.2996865588125992e-12
1.2378511157740023e-07
2.77836607328932724e-12
1.23775807849447465e-07
9.24229066871130787e-13
1.23771931789506565e-07
-2.72832689789984515e-12
1.23760128854512174e-07
6.94946741539783501e-12
1.23751784511856497e-07
5.19876620212225535e-12
1.23743176317367391e-07
7.12990666436740017e-12
4.33821962648388715e-12
1.48074539110152905e-07
1.64225763634443628e-11
1.47962442027346856e-07
3.4957574408012217e-11
1.47852016639874388e-07
-1.71198835978119195e-12
1.47749602956194102e-07
2.01045543124932796e-11
1.47636928435561114e-07
-3.19680712301091451e-13
1.47531736137464549e-07
1.82460914162937688e-11
1.47420817537474518e-07
-2.48456671611027412e-12
1.47318456577647654e-07
1.22012970461127403e-11
1.47211876273014e-07
-5.81401535604370471e-12
1.47110662679818364e-07
9.03768562791383209e-12
1.47005569604164287e-07
-5.15184145116365048e-12
1.46905803072386382e-07
7.25979479863218946e-12
1.46804138867989303e-07
-5.54680123678325452e-12
1.46708241445966466e-07
3.73872483960739934e-12
1.46610534121330341e-07
-6.45042094188693423e-12
1.46517216518514478e-07
2.09296695741999101e-12
1.46421525955540842e-07
-5.50495132510866989e-12
1.46328754337610333e-07
3.10016813271798067e-12
1.46235364097946002e-07
-4.63160565228030734e-12
1.46146593451177179e-07
9.83758194753986438e-13
1.46057378704590477e-07
-5.88610672332274427e-12
1.45967853844337791e-07
2.63696721868653169e-12
1.45877113272257634e-07
-2.87970458814871999e-13
1.45787986875233755e-07
5.21320883817191087e-12
1.45709004492533631e-07
-7.26558663413060985e-12
1.45628346487232671e-07
-1.61294628724961286e-12
1.45541709248738051e-07
-1.54853344333983235e-12
1.45442210147348006e-07
2.11202486106057821e-11
1.45368944335511966e-07
-4.7073328799797484e-12
1.45319808870397794e-07
-2.64900511535289812e-11
1.45243083315970959e-07
-4.88824952127460513e-12
1.45149830829346282e-07
1.73036551977938845e-11
1.45081988150381632e-07
-5.00792749900899705e-12
1.45019800645578946e-07
-1.00931370420902719e-11
1.44938463277993893e-07
9.92995632238775527e-12
1.44871618337314638e-07
-1.45460852943673544e-12
1.44813775431911834e-07
-1.07876618781958987e-11
1.44743878087670183e-07
4.17811194516111072e-12
1.44674417257043205e-07
3.76220517392963235e-12
1.44597968472037669e-07
1.4381507358903545e-11
1.44548510040362181e-07
-8.55472481059925737e-12
1.44506654152185245e-07
-1.88592406681812064e-11
1.4443902712822253e-07
8.72906126213602345e-12
1.44379362163769468e-07
2.21984307630330153e-12
1.44313288513259259e-07
1.22212119759261871e-11
1.44250142941966068e-07
1.31983741013177136e-11
1.44231850896029015e-07
-2.92916039817955755e-11
1.44198915197936395e-07
-1.84096147097228956e-11
1.4414367369627956e-07
5.67832171346159116e-12
1.4409004326933759e-07
8.39413764045287875e-12
1.44038202062518973e-07
9.45601327233684566e-12
1.43984127041592638e-07
1.23480627311334975e-11
1.43963517223004081e-07
-1.71694188972555451e-11
1.43937788868515053e-07
-1.39691080478370246e-11
1.43889006784711645e-07
1.22308400699875558e-11
1.43839287253405739e-07
1.51858218379611373e-11
1.43804566646973159e-07
3.84863002241966657e-12
1.4380166300704578e-07
-2.62945519963980206e-11
1.43786279878589472e-07
-1.82840571675166044e-11
1.43724770300666161e-07
3.28251257073125337e-11
1.43681382451557775e-07
2.26550776895173254e-11
1.43698090319724738e-07
-3.75489329400137604e-11
1.43697327358314512e-07
-2.38273634835781093e-11
1.43639743079572368e-07
3.7555984483338892e-11
1.43611178732280112e-07
1.27200916095757452e-11
1.43642695018684637e-07
-4.74318100528086862e-11
1.43628410428306418e-07
-4.18356227235945783e-12
1.4356852577056152e-07
4.92148421895462538e-11
1.43554200150330111e-07
6.93471052172752077e-12
1.43596865613875216e-07
-5.01223083162076753e-11
1.43596657606046659e-07
-9.12371298614658854e-12
1.43559484364812621e-07
3.92690066622750539e-11
1.43546549530758217e-07
1.49880681947358526e-11
1.43548642556039896e-07
3.55774574611724675e-12
4.21721801109337022e-12
1.48827922800094745e-07
7.17636435099278114e-12
1.48738853563076681e-07
1.52071059265592943e-11
1.48617549074366733e-07
1.14721320839544102e-11
1.48511758599052613e-07
1.84945678747003183e-11
1.48399022930412969e-07
5.78063584405616156e-12
1.48298510173029024e-07
1.29245678549641961e-11
1.4819001127734992e-07
9.99638425253253652e-13
1.48088710351848914e-07
9.36476694241261409e-12
1.47981278768996261e-07
-1.63718933267301625e-12
1.47881088098321653e-07
6.91597008000892486e-12
1.47777029573455771e-07
-2.45044521555233441e-12
1.47678627006955363e-07
5.30610288905769038e-12
1.47578195150328091e-07
-4.4440780997032125e-12
1.47481080178696339e-07
2.58318248878950483e-12
1.47381821114309613e-07
-4.37094288834038441e-12
1.47285842899350647e-07
2.00906691633315039e-12
1.4718997986241349e-07
-4.55768679943496285e-12
1.47096440653899738e-07
2.89947572061732816e-12
1.47001948142575952e-07
-2.68151508708762831e-12
1.46911602703490321e-07
1.78776718763931304e-14
1.46819700259794492e-07
-4.0469091253651268e-12
1.46730012565122047e-07
3.54334757567387276e-12
1.46644988863660717e-07
-2.74705606881238646e-12
1.46562222775646516e-07
1.8251465757239977e-12
1.46473301793357976e-07
-3.15275443448385877e-12
1.46387416399094978e-07
8.38201888397411278e-13
1.46301810519537671e-07
2.01407502219082173e-12
1.46238194623689898e-07
4.10952079984137085e-12
1.46162457948248725e-07
-8.16434029918557172e-12
1.46065021565859568e-07
-6.78941072077198006e-12
1.45982860319791214e-07
1.01125839834809867e-12
1.45921788787461358e-07
3.60762315774978744e-12
1.45848123930300144e-07
-4.59520223085510842e-12
1.45766982187337058e-07
-6.67571971228921534e-13
1.45704571249475766e-07
2.17447226216122694e-12
1.45636487578057649e-07
-1.9682942042746629e-12
1.45559852375707638e-07
-1.1585538288976249e-12
1.45497429593272031e-07
1.19812409823723398e-12
1.45435666184427725e-07
1.74134459936719326e-12
1.45384351262120066e-07
3.55075987362797599e-12
1.4532069747171034e-07
-5.3860876693190532e-12
1.45246135661179323e-07
-3.10844726672965294e-12
1.45196308078210209e-07
1.43293948652719527e-12
1.45140208238236621e-07
2.8989205824347509e-12
1.45094775608351021e-07
3.95615130749305739e-12
1.45058777046733548e-07
-2.76391073052602138e-12
1.44990801268926446e-07
-1.15252878373978533e-11
1.44926706664215315e-07
-2.75904952384433273e-12
1.44883385536198307e-07
2.332936380058051e-12
1.44843221926784411e-07
3.68098234078987589e-12
1.44805978443140777e-07
3.62934875679106737e-12
1.44775298741485171e-07
1.76664942328678417e-12
1.44726619433150061e-07
-7.93449446011053997e-12
1.44675588368740129e-07
-5.48198764484649354e-13
1.4464777077618891e-07
4.27153542480426877e-12
1.44624334143274438e-07
4.6793671225107777e-12
1.44597380233820517e-07
-1.29757311994578255e-12
1.44548367854432084e-07
-7.53569480163170112e-12
1.44503956980312821e-07
-2.28381875822963965e-12
1.44499766550318552e-07
1.04477068666679554e-11
1.44497566405015225e-07
1.27877844147071961e-13
1.44452397213614019e-07
-1.52676579954687705e-11
1.44404907238710463e-07
2.60761188082558577e-12
1.44411078560334291e-07
1.21591465571124882e-11
1.444076088160747e-07
-1.21175006938270674e-12
1.44350396862161696e-07
-5.80438895172962807e-12
1.44335508248362837e-07
-3.06857955038135084e-12
1.44374451969199253e-07
-1.69913266782692377e-12
1.44368824072976717e-07
2.39189186798871463e-12
1.44318407995160431e-07
-8.0856353720515531e-12
1.44298879895409459e-07
3.801746354468449e-12
1.44329358761675078e-07
3.93545328249092867e-12
1.44335132501308381e-07
6.06961879175568577e-12
1.44330486883239409e-07
6.72458672847772605e-12
3.98159953506131813e-12
1.48850596933758193e-07
2.24355550521116856e-11
1.48732778603942195e-07
2.4206496689850439e-11
1.48628379212818878e-07
7.75195114989085513e-12
1.48524249620864341e-07
1.52244874264316057e-11
1.48419735605453109e-07
3.65998938876162016e-12
1.48316179300985273e-07
1.06472072925892714e-11
1.48210771218561069e-07
1.39373219141582396e-12
1.48109140144049412e-07
6.85878192464422336e-12
1.48002429411003387e-07
1.81948387902896013e-12
1.47898944219373779e-07
8.08913358666641756e-12
1.47794970114563302e-07
1.67122311755414988e-13
1.47695677169420295e-07
4.24317987781293999e-12
1.47593820599812512e-07
-1.91609728402621173e-12
1.47496692570020147e-07
1.44092093747021869e-12
1.47398353447179309e-07
-3.21103734347525557e-12
1.47303134990206756e-07
1.16542228905420735e-12
1.47208592536096265e-07
-4.9308425152897626e-12
1.47114308496486253e-07
3.443432898111928e-12
1.47020824553683124e-07
-1.73994081973364803e-12
1.46930421744229959e-07
-8.90852702054936088e-13
1.46841470691205191e-07
-5.15928967022190119e-12
1.46752479563792945e-07
3.75264099099075208e-12
1.46662724214032916e-07
-4.75410876866706315e-13
1.46577245195238386e-07
1.14924643000407731e-12
1.4649037194273775e-07
-1.08791879749243286e-12
1.46408384187520296e-07
-6.08715039146220199e-13
1.46329780234040401e-07
-1.42579776289611123e-12
1.46250006681952179e-07
3.25576426999344764e-12
1.46166957733165558e-07
-4.30941628055603556e-12
1.46085567165165833e-07
-3.13513622907167393e-12
1.46011454088395937e-07
-1.13832241996896183e-12
1.45938844668396674e-07
1.44861711273153897e-12
1.45863449271620121e-07
-2.4526546294011238e-12
1.45791268067680981e-07
-2.0412405301638391e-13
1.45722641847399509e-07
6.36686003767798703e-13
1.45653658381187979e-07
-1.58229504630310265e-12
1.45588158833612435e-07
-2.66763960052626368e-12
1.45523070969409185e-07
8.7933530835431404e-13
1.4545941012322909e-07
1.61791399895873289e-12
1.45397561405402977e-07
3.25746663552942832e-12
1.45335212016118665e-07
-3.52189580919365749e-12
1.45276835012539365e-07
-3.54422884462862866e-12
1.45219072046119112e-07
2.0721876599604563e-12
1.45164033885824809e-07
2.52079512875043118e-12
1.4511115262150937e-07
3.14392202499525316e-12
1.45060550324099303e-07
-4.12066169430582367e-12
1.45004580564151556e-07
-5.76321823916674303e-12
1.44956154084202983e-07
-2.77563888863031226e-12
1.44911593265088517e-07
2.29657941631109084e-13
1.44869249519436286e-07
1.15309376018089781e-12
1.44826015765719588e-07
3.79294040453089152e-12
1.44784398970336959e-07
2.1214487447213551e-12
1.44742314581123458e-07
-5.2903091299507206e-12
1.44707030834376478e-07
-2.87537481950163157e-12
1.44670529241919887e-07
4.99438680655487751e-12
1.44636850755425366e-07
4.41644842717894169e-12
1.44606846222466629e-07
-3.39032030761186969e-12
1.44576714619783463e-07
-7.65677809724320465e-12
1.44550282948432159e-07
-4.2618590741690014e-12
1.44519653764006022e-07
1.45115573997270055e-11
1.44494674718393107e-07
3.81913826134757628e-13
1.44473121396328928e-07
-1.66017883828139022e-11
1.44454092783905376e-07
5.82295470040160288e-13
1.44428368501891148e-07
1.86585946271541292e-11
1.44407450235068208e-07
2.30480245803452548e-12
1.44394458389195026e-07
-8.39659003175656299e-12
1.44390061174977546e-07
-1.24440991406483231e-11
1.44377338169642519e-07
-9.42709810734553045e-13
1.44367279475751107e-07
2.28129867331800055e-12
1.44356813918170649e-07
-5.99956225004490728e-12
1.44345739630198939e-07
8.27119951878447548e-12
1.44331582054073595e-07
1.32391906882767754e-11
1.44327691065138592e-07
6.81566658281248079e-12
1.44328665513788319e-07
4.271156053364139e-12
2.46207507282249059e-12
1.48846038088844082e-07
1.32149207232114384e-11
1.48743804698156797e-07
1.7622317319440686e-11
1.48631506332334633e-07
1.19322854507148719e-11
1.48525563915591231e-07
1.37685758827374433e-11
1.48414797904577852e-07
7.79273160881522317e-12
1.483104806940741e-07
9.13212752920123212e-12
1.48203835740934055e-07
3.02586031077295389e-12
1.4810107818929159e-07
5.48053992521409917e-12
1.48003174737416853e-07
-3.53012719687362122e-12
1.47903302416450215e-07
5.6505428123976387e-12
1.47797924382922975e-07
4.18949113667984841e-12
1.47697756423026404e-07
4.0561668198322746e-12
1.47597186109087608e-07
-6.73780579328776208e-13
1.47500360883767363e-07
-3.40844544367915618e-15
1.47403051501239144e-07
-3.08047489833069106e-12
1.47306037493595464e-07
2.11791032487437759e-12
1.47205051003257953e-07
1.14027704478476415e-12