/*--------------------------------*- C++ -*----------------------------------*\
  =========                 |
  \\      /  F ield         | OpenFOAM: The Open Source CFD Toolbox
   \\    /   O peration     | Website:  https://openfoam.org
    \\  /    A nd           | Version:  9
     \\/     M anipulation  |
\*---------------------------------------------------------------------------*/
FoamFile
{
    format      ascii;
    class       volScalarField;
    location    "0.01";
    object      rho;
}
// * * * * * * * * * * * * * * * * * * * * * * * * * * * * * * * * * * * * * //

dimensions      [1 -3 0 0 0 0 0];

internalField   nonuniform List<scalar> 
1800
(
0.575184384034173268
0.577363847546576991
0.581382905809512462
0.588254701915200351
0.593225218545665567
0.594986088687698533
0.595501172576806126
0.59562992640836887
0.595658251351087298
0.595663658237728377
0.595664645571102991
0.595664633393122256
0.595664643451519149
0.595664456009812882
0.595664422557286355
0.575173197356470878
0.57722694428497523
0.581015078159570875
0.587493387831187319
0.592807710971210322
0.594822824932978667
0.595449805100416452
0.595616301731407116
0.595655109830533047
0.595663017479624135
0.595664525156690994
0.595664615022475252
0.595664639326488388
0.595664456099456174
0.595664421256243082
0.575170714853440512
0.577206259469032923
0.580959167732888804
0.587383940449541897
0.592747934934758414
0.594799601229926478
0.595442447325563728
0.595614318782042629
0.595654642176163152
0.595662919441081185
0.59566450634177015
0.595664611665408406
0.595664636728607366
0.595664457270650427
0.595664421119530552
0.575171646693525718
0.577220252898737352
0.580993337609272187
0.587447383214871333
0.592776051029942908
0.594808131317012045
0.595444492692530303
0.595614726854934884
0.595654707353136081
0.595662930826090675
0.595664506190866305
0.595664613663412279
0.595664637839771971
0.595664458266444319
0.595664420736668587
0.575171922292517013
0.577220176223264492
0.580993393340489717
0.587448441513365172
0.592777383696616922
0.594808911511543914
0.595444794660897281
0.595614816304322559
0.595654728839601466
0.595662935710113417
0.595664506670986693
0.59566461377494373
0.595664636572378337
0.595664458513693984
0.595664420819386864
0.575172498448047298
0.577227780756691455
0.581012737801663515
0.58748635025338658
0.592796086381178422
0.594815248587969081
0.595446507231189526
0.595615206960093291
0.595654803494210738
0.595662950534683877
0.59566450805669946
0.595664615726915425
0.59566463739484643
0.595664459417721837
0.595664420653740145
0.575172581113319259
0.577226816495729711
0.581010227954451675
0.587481395185851407
0.592793869569649079
0.594814674502989749
0.595446409576099178
0.595615201428541963
0.595654805849171853
0.595662952154025538
0.595664508285317806
0.595664616086960308
0.595664636798714509
0.595664459901728782
0.595664421130717825
0.575172822280378249
0.57723045535480122
0.58101988409277916
0.587501365800601749
0.592804385227606478
0.594818411198553498
0.595447455016891114
0.595615445326532766
0.595654853432739939
0.595662962030593546
0.595664509595197456
0.595664617580594413
0.595664637609645276
0.595664460756986536
0.595664421171464675
0.575172833328993494
0.577229433912990197
0.581016961477062943
0.587494839508121092
0.592800809043751431
0.594817172817956874
0.595447126722715048
0.595615376967859711
0.595654842212855362
0.595662960887766268
0.595664509914745621
0.595664618240343446
0.595664637827018062
0.59566446148990948
0.595664422122403336
0.575172920322074566
0.577231119972023032
0.581021788570499909
0.587505614249921315
0.592806999008566593
0.594819505065859344
0.59544780338919745
0.59561553736602435
0.595654874228252584
0.595662967713367464
0.595664511444733202
0.595664619517692007
0.59566463912438794
0.595664462771917869
0.595664423022566503
0.575172913873955527
0.577231062692838859
0.581021606763740706
0.587505141122890984
0.592806657161919381
0.594819357838168306
0.595447758497235191
0.595615527148908197
0.595654872876850927
0.595662968106457802
0.59566451209381488
0.595664620167412839
0.595664639706688925
0.595664463257182364
0.595664423454285719
0.575172822303552933
0.577229350371119554
0.581016740973632428
0.587494358149006302
0.592800532462578245
0.594817073386962436
0.595447102296700725
0.59561537429310607
0.595654844350995138
0.595662963818768376
0.595664512926529111
0.595664621142526052
0.595664640711722315
0.595664464319004106
0.595664424940786086
0.5751728273049731
0.57723047032240804
0.581019921381787929
0.587501472654716639
0.592804483313111308
0.594818459776014441
0.595447473780344017
0.595615453846583764
0.59565485923858652
0.595662967165620727
0.595664514487554531
0.595664622415760792
0.5956646423054196
0.595664465382785391
0.595664425769035999
0.575172586582175627
0.577226796741796444
0.581010164238063065
0.587481245533168606
0.592793801082719951
0.594814665164375089
0.595446417262567418
0.59561521024305808
0.595654813478231127
0.595662959194107167
0.595664514972692904
0.595664622614940908
0.595664643177591158
0.595664466252968539
0.595664427369566152
0.57517251509461742
0.577227831167436478
0.581012850694046068
0.587486584485078511
0.592796224897716884
0.594815306602470062
0.595446531543908586
0.595615220035196402
0.595654813257644355
0.595662959206736287
0.59566451643049767
0.595664623859825548
0.595664645402457782
0.595664467269822029
0.595664428559274817
0.575171941205808834
0.577220225455876035
0.580993504389821114
0.58744867251958699
0.592777552571405963
0.59480899542870258
0.595444831265705132
0.595614834390508996
0.595654741073636473
0.595662946215326561
0.595664516660846521
0.595664623448225572
0.595664646132678444
0.595664467889578053
0.595664430253064481
0.575171674543740408
0.577220343046277895
0.580993546953437967
0.587447822276846887
0.592776364199366967
0.594808282535450372
0.59544455339267377
0.595614752611316578
0.595654722425144167
0.595662943163095315
0.595664517697237939
0.595664624939547083
0.595664648772864513
0.59566446924445271
0.595664431585597898
0.575170753880305696
0.577206388021326067
0.580959465213328419
0.587384534427021987
0.592748325238421914
0.594799786012824017
0.595442522290569043
0.595614350165251327
0.595654659864968905
0.595662933425542884
0.595664519392096192
0.595664624272229992
0.595664649103549326
0.595664469545919339
0.595664433523846459
0.575173261294168681
0.577227234883489593
0.581015786115128496
0.587494846518207936
0.59280856383666547
0.594823168357742738
0.595449920762885498
0.595616342105779961
0.595655129877416978
0.595663032646342239
0.595664539229840972
0.595664628553054021
0.595664652650486737
0.595664469386923079
0.595664434862084757
0.575184455331956945
0.577364235644138635
0.581383869392630537
0.588256594207556271
0.593226177401528942
0.594986428930931566
0.595501274986427909
0.595629960981116868
0.595658269874470014
0.595663673360960821
0.595664659828188059
0.595664647199585895
0.595664657042710433
0.595664469873533275
0.595664436734248071
0.595664220970379743
0.595664204156873156
0.595664031267041927
0.595663981749368965
0.595663823593164277
0.595663749812150867
0.595663594369803651
0.59566350696409609
0.595663346617916423
0.595663249616414814
0.595663084553612721
0.595662975925818405
0.595662809264869919
0.595662686307992573
0.595662519192832418
0.595662381956063247
0.595662212533823232
0.595662063421886101
0.595661888717482713
0.595661730321862648
0.595661548391861917
0.595661381878976437
0.595661192463920797
0.595661017712371788
0.595660821293811593
0.595660638056011327
0.595660434862920529
0.595660242815699514
0.595660032822954655
0.595659832898904562
0.595659616719522056
0.595659408360648124
0.595659185565566296
0.595658969393709881
0.595658741667758118
0.595658517198327964
0.59565828471154747
0.595658051957489554
0.59565781424654507
0.595657574079963115
0.595657331971847337
0.595657086866291152
0.595656838382001896
0.595656587553767713
0.595656333948474059
0.595656078998438976
0.595655820567604355
0.595655560905960391
0.595655298400557753
0.595655033545080093
0.595654766823185744
0.5956544979398819
0.595654225533503556
0.595653952713702028
0.595653676316336478
0.595653397092608228
0.595653115708774439
0.595652832415462408
0.595652546195771238
0.595652257273731833
0.59565196603268411
0.595651671840288444
0.595651375347919787
0.595651076634960197
0.595650775234313201
0.595650470969893875
0.59565016550639216
0.5956498565911994
0.595649546557424192
0.595649234029873464
0.595648919143951794
0.595648598933627871
0.595648272823167901
0.595647940415557242
0.595647607422431724
0.595664221996075272
0.595664202828438238
0.595664032100666319
0.595663980447351582
0.595663824079724513
0.59566374875537409
0.595663594747086189
0.595663506107383389
0.595663347168916113
0.595663248851023286
0.595663085122413505
0.595662975251584181
0.595662809667236504
0.595662685778440504
0.595662519446959249
0.59566238155246054
0.59566221267388797
0.595662063090757643
0.595661888819548513
0.595661730053008154
0.595661548455858392
0.595661381564671744
0.595661192527996652
0.595661017414189642
0.595660821390383899
0.595660637491909339
0.595660434852441245
0.595660242308592935
0.595660035471075489
0.595659835496449075
0.595659618039155125
0.595659408605367702
0.595659187528676193
0.595658969905993985
0.59565874153415399
0.595658517713361868
0.595658284906753432
0.595658051769762942
0.595657814715668921
0.595657573725807743
0.59565733280696187
0.595657087011974395
0.595656838770610486
0.595656587755596267
0.595656333768489032
0.595656079253741977
0.595655824534765399
0.595655562367460312
0.595655298941155431
0.595655033277679324
0.595654766841705152
0.595654498598564119
0.595654228440519184
0.595653952617283933
0.595653676604493199
0.595653397250003103
0.595653116670489591
0.595652835476862208
0.595652547742068106
0.595652257031633714
0.595651966527142918
0.59565167506008998
0.595651376999339677
0.595651076093990262
0.595650776161148032
0.59565047188437481
0.595650162790497095
0.595649855602923606
0.595649547091969933
0.595649235348829631
0.595648918412122419
0.59564859822695071
0.59564827294446554
0.595647940229357964
0.595647607373326671
0.595664223348955635
0.595664203230891864
0.595664033293629491
0.595663980944463267
0.595663825153637694
0.59566374926403276
0.595663595643323385
0.595663506480852423
0.595663347658278552
0.59566324915708635
0.595663085498249978
0.595662975530602989
0.595662810166314172
0.595662686023377241
0.595662519913582877
0.59566238177313735
0.595662213079129477
0.595662063256182872
0.595661889169033731
0.595661730303657877
0.595661548778927408
0.595661381763851305
0.595661192921074778
0.595661017533970827
0.595660821707298171
0.595660637912717505
0.595660435470043437
0.595660244174679998
0.595660032728279942
0.595659831706513043
0.595659616180048146
0.595659408772908794
0.595659185748935838
0.595658969262310212
0.595658743072088104
0.595658516865058885
0.595658284265829674
0.595658051951810319
0.595657813540229397
0.595657576063454375
0.595657331994873251
0.595657085988723578
0.595656838513712206
0.595656587722758979
0.595656336967285149
0.595656080280398847
0.595655820114123213
0.59565556082049409
0.595655298943569167
0.59565503552527399
0.595654768274965885
0.595654497580308084
0.595654225724187469
0.595653952490194261
0.595653676479210525
0.59565339825932917
0.595653117487408901
0.595652831908751845
0.59565254670797807
0.595652259497421954
0.595651967791613113
0.595651671583816045
0.595651375397396321
0.595651077906758419
0.595650774481257583
0.595650471111001223
0.595650166695759542
0.595649859041478158
0.595649546399679486
0.595649233929355981
0.595648919327122606
0.595648600566579978
0.595648273144952722
0.595647940874746706
0.595647607431775916
0.595664223077195021
0.595664202594048953
0.595664033768404155
0.595663980322981845
0.595663825734193186
0.59566374869526606
0.595663596231338577
0.595663506021540723
0.595663348155445305
0.595663248718642069
0.595663085992551689
0.595662975107178805
0.595662810348477456
0.595662685699625993
0.595662519970484028
0.595662381475117519
0.595662213073734792
0.59566206290935575
0.595661889094795338
0.595661729735502243
0.595661548696074794
0.595661381343293828
0.59566119275128282
0.595661017323294351
0.595660821559641618
0.595660637532372417
0.595660434719560761
0.595660241941708635
0.595660032691313512
0.595659832153896396
0.59565961657893618
0.595659407867301871
0.595659185868715801
0.595658969284890261
0.595658741506557732
0.595658516499667279
0.595658284256458281
0.595658051229127294
0.595657814576868727
0.595657574725579342
0.595657331619900643
0.595657086420455673
0.595656838795845522
0.59565658863246429
0.595656334327819392
0.595656079113055292
0.595655820882675435
0.595655561245021059
0.595655298927010635
0.595655034032267716
0.595654766179280371
0.595654497602697064
0.595654226189194613
0.595653952420917121
0.595653675875366773
0.59565339799964423
0.595653116835219154
0.595652832465056958
0.595652546493231294
0.595652257425271614
0.595651966329304172
0.595651671801134319
0.595651375642873293
0.595651076113764111
0.595650775365821117
0.595650471289316696
0.595650165770789219
0.595649856480322648
0.595649546645397265
0.595649233536205691
0.595648918676175199
0.59564859868867126
0.595648272707318571
0.595647940197786996
0.595647607502248211
0.595664224016886124
0.595664202983984925
0.595664034237120554
0.595663980756272582
0.595663826045484845
0.595663749194369263
0.595663596456555977
0.595663506673020815
0.595663349007624299
0.595663249140155671
0.59566308649943378
0.595662975538359785
0.595662810871980808
0.595662686137134134
0.595662520427173159
0.59566238180000719
0.595662213500788962
0.595662063785153628
0.595661889347168239
0.595661730272316725
0.595661548987922562
0.595661382091568492
0.595661192899408665
0.595661017561503914
0.595660821633490656
0.59566063769757327
0.595660435284163903
0.595660243140693879
0.595660033015969814
0.595659832558994018
0.595659616571528328
0.59565940829162034
0.59565918606891477
0.595658969393507931
0.595658741940829017
0.595658516766732204
0.595658284580870667
0.595658052390595216
0.595657814830555576
0.595657575379770265
0.595657332194316158
0.595657086915913125
0.595656838976215575
0.595656588152524091
0.595656335696450046
0.595656079685620621
0.595655821636164595
0.595655561808251077
0.595655299451898546
0.595655035050122295
0.595654768827432402
0.595654499470068544
0.595654227153471383
0.595653953665768565
0.595653678027628697
0.59565339924165428
0.595653117383257324
0.595652833515968649
0.595652547559197276
0.595652259770732773
0.595651966842710046
0.595651673226259004
0.595651377509667346
0.595651078574809589
0.595650775956315548
0.595650471910780244
0.595650165699666667
0.595649857553854245
0.595649547057766848
0.595649234751669088
0.595648919775235819
0.5956485998430322
0.595648273271273343
0.59564794086523043
0.59564760739956657
0.595664224104871853
0.595664202827380529
0.59566403441624749
0.595663980603877152
0.595663826329062562
0.59566374897985408
0.595663596772607717
0.595663506237882334
0.595663348628614142
0.59566324878715482
0.59566308635723797
0.595662975349855794
0.595662810857101266
0.595662685671431658
0.595662520449270261
0.595662381486068648
0.595662213508517002
0.595662063041886847
0.595661889407569034
0.595661730072711615
0.595661548958622
0.595661381369849363
0.59566119284152852
0.595661017103247592
0.595660821604143242
0.595660637469957455
0.595660434984850551
0.595660242113585481
0.595660033038830194
0.595659832470072148
0.59565961652563082
0.595659407939733265
0.595659185959535042
0.595658969194110766
0.595658741774628187
0.595658516657179393
0.595658284201086685
0.595658051218119655
0.595657813984987516
0.595657574717445293
0.595657331991003569
0.595657086444595807
0.595656838329393201
0.595656588319570024
0.59565633518001615
0.595656079750891299
0.595655821911430516
0.595655561816504919
0.595655299254598924
0.59565503487321636
0.595654767785758765
0.595654498509479713
0.595654227325688956
0.595653953544651893
0.595653677154670991
0.595653398570428316
0.595653117552154887
0.595652833754274358
0.595652547423772383
0.595652258349681829
0.595651966982576053
0.595651672781831731
0.595651376051219761
0.595651076873498275
0.595650775502678531
0.59565047155207107
0.595650165344428828
0.595649856927101151
0.595649546557178611
0.595649234075382283
0.595648917829126545
0.595648598422993336
0.595648272353197061
0.595647940128419373
0.595647607534785406
0.595664224947524135
0.595664203342404219
0.595664035213436582
0.595663981185432956
0.595663826979895061
0.59566374966678648
0.595663597355383101
0.595663507111523716
0.59566334950457156
0.595663250563869817
0.595663087531821067
0.595662976088448093
0.5956628113958361
0.595662686361692284
0.595662520955344998
0.59566238253026349
0.595662213819229569
0.595662063516964824
0.595661889708378633
0.595661730296303871
0.595661549122475376
0.595661381642954457
0.595661193090131325
0.595661017598014486
0.595660821728672074
0.595660637578796615
0.595660435114745646
0.595660242592020328
0.595660033157550006
0.595659832499262132
0.595659616540644143
0.595659407893239567
0.59565918593160061
0.595658969116540038
0.595658741760151322
0.595658516732941234
0.595658284535483529
0.595658052146014194
0.595657814853226442
0.595657574930566036
0.595657332420704955
0.595657087212687175
0.595656839904401769
0.595656588585698477
0.595656335694124572
0.595656080104528529
0.595655822380269373
0.595655562483356937
0.595655300471604643
0.595655035659170218
0.595654768411012392
0.595654499247842861
0.595654227849171214
0.595653954084068959
0.595653677668793624
0.59565339906449255
0.595653117902179119
0.595652834167886724
0.595652547932680965
0.595652258789067912
0.595651967398329263
0.595651673268236759
0.595651376366381768
0.595651077239851778
0.59565077563094837
0.595650471777714685
0.595650165463844083
0.595649856996366189
0.595649546789350004
0.595649234817330342
0.595648921232416528
0.595648600932349503
0.595648274664819843
0.5956479413254403
0.595647607595234274
0.595664225249729173
0.595664203478176502
0.595664035427637573
0.59566398129603626
0.595663827268001933
0.595663749706171752
0.595663597618894536
0.595663507024338346
0.595663349698420608
0.59566324957293737
0.595663087155144488
0.59566297578152605
0.59566281164961643
0.595662686437383404
0.59566252112098883
0.595662382037273952
0.595662213969312071
0.595662063522335417
0.59566188978256307
0.59566173018081281
0.595661549210679597
0.595661381648703858
0.595661193091213792
0.595661017250453284
0.595660821730356282
0.595660637398942927
0.595660435062783877
0.595660242297294307
0.59566003313382343
0.5956598323774287
0.595659616546647341
0.59565940784892546
0.595659185928169799
0.595658969076534039
0.595658741766377453
0.595658516713462372
0.595658284381678782
0.595658051475474126
0.595657814181490441
0.595657574929124189
0.595657332332210077
0.595657086949050618
0.595656839076426636
0.595656588724647218
0.595656335824250704
0.595656080418539235
0.595655822684967196
0.595655562647269932
0.595655300171108903
0.59565503567613276
0.595654768799478984
0.595654499661841585
0.595654228206496938
0.595653954361686888
0.595653678111747187
0.595653399459966093
0.595653118251358915
0.595652834445300039
0.595652547952699951
0.595652259046546728
0.595651967401877758
0.595651673135434989
0.595651376555461076
0.595651077327020606
0.595650775692144085
0.595650471771681067
0.595650165440886337
0.595649857110315373
0.595649546868089019
0.595649234132814231
0.595648918752560319
0.595648598944689578
0.595648272818372848
0.595647940404559373
0.595647607373308574
0.595664226281162446
0.595664204376713191
0.595664036432834276
0.595663982194773789
0.595663828182270594
0.59566375064274435
0.595663598492456092
0.59566350797358103
0.595663350419154969
0.595663250329159788
0.595663088106833327
0.595662977358293433
0.595662812531930985
0.595662687483216491
0.595662521729379502
0.595662382593966311
0.595662214417062796
0.59566206396512944
0.595661890191464205
0.595661730875857387
0.595661549468821216
0.59566138191649276
0.595661193250273557
0.595661017441816765
0.595660821842356691
0.595660637576349572
0.595660435147552736
0.595660242466672929
0.595660033199273076
0.595659832457184235
0.595659616591655672
0.595659407875587354
0.595659185951708969
0.59565896909139604
0.595658741808726466
0.595658516796914284
0.595658284573692631
0.595658051988860571
0.595657814508667394
0.595657575127388261
0.595657332662554606
0.595657087438450028
0.595656839437989971
0.595656589029886052
0.595656336105775064
0.595656080761435391
0.595655823046986166
0.595655563080300321
0.59565530066348471
0.59565503615506632
0.595654769257231043
0.59565450016309085
0.595654228703012323
0.595653954925951745
0.595653678558872524
0.595653399885498258
0.595653118629867584
0.59565283487775178
0.595652548552502714
0.595652259363101289
0.595651967823343398
0.595651673649946645
0.595651376708905889
0.595651077428048459
0.595650775639439356
0.595650471568236695
0.595650165290531386
0.595649856873947114
0.595649546573490674
0.595649234163293961
0.595648918515908066
0.595648598846162503
0.595648272660575406
0.595647940388464803
0.595647607759391517
0.595664227299190774
0.59566420529832198
0.595664037385382428
0.595663982977561623
0.595663828847761256
0.59566375103262803
0.595663598903011571
0.595663508277867515
0.595663350919984236
0.595663250917895404
0.59566308851144123
0.595662977055559373
0.595662812691920784
0.595662687459992735
0.595662522061767619
0.595662382941880786
0.595662214785232957
0.59566206420389689
0.595661890457861998
0.595661730818318857
0.595661549710963634
0.595661382085745483
0.59566119346280566
0.595661017610644716
0.595660821981443767
0.595660637592029141
0.595660435211352257
0.595660242453920019
0.595660033300953962
0.595659832517713261
0.595659616666176728
0.595659407931677487
0.595659186020093934
0.595658969154176376
0.595658741890032095
0.595658516878672661
0.59565828465758297
0.59565805197052768
0.595657814698612342
0.595657575329869404
0.59565733285279665
0.59565708755725999
0.595656839809685867
0.595656589312007934
0.595656336461610314
0.595656081153503769
0.595655823443599353
0.59565556348773907
0.595655301118114378
0.595655036601121846
0.59565476966560682
0.595654500546994869
0.595654229032144489
0.595653955166405291
0.595653678930015307
0.595653400192526106
0.595653118921496305
0.595652835021913574
0.5956525485870795
0.595652259534001027
0.595651967856653863
0.595651673506417123
0.595651376809916866
0.595651077645513727
0.595650775935649524
0.595650471692366401
0.595650165213785554
0.595649856859504889
0.595649546474210978
0.595649234310562825
0.595648918766040314
0.595648599125954026
0.595648272849303662
0.595647940475128368
0.595647607438581583
0.595664227719099437
0.59566420569884948
0.595664037787285827
0.595663983444993494
0.595663829495869823
0.595663751992917656
0.595663599902649832
0.59566350910202448
0.595663351567937926
0.595663251757402978
0.595663089295423998
0.595662977751621359
0.59566281339128746
0.595662687900033738
0.595662522479178058
0.595662383475229484
0.595662215288403796
0.595662064780403733
0.59566189091084365
0.595661731217002721
0.595661550120552441
0.595661382434736875
0.595661193713645232
0.595661017882154753
0.595660822199349016
0.595660637853651975
0.595660435434611002
0.595660242680076446
0.595660033451558268
0.595659832652846499
0.595659616796776703
0.595659408048079042
0.595659186135646168
0.595658969274019401
0.595658742002844854
0.595658516997197518
0.595658284819346795
0.595658052156133211
0.595657814865474644
0.59565757552385834
0.595657333083010831
0.59565708780292892
0.595656840059516024
0.595656589603999032
0.59565633681886021
0.595656081547900729
0.595655823857257793
0.595655563925163611
0.595655301574117613
0.595655037089392159
0.595654770152204471
0.595654501069888709
0.595654229601543905
0.595653955736056617
0.59565367937662006
0.595653400618119444
0.595653119309208501
0.595652835455359519
0.595652548854599173
0.595652259743628343
0.595651967972839813
0.595651673521827907
0.595651376701044066
0.595651077315032529
0.595650775443113067
0.595650471306160778
0.595650164878310684
0.59564985648459845
0.595649546124168205
0.595649233630148101
0.595648918357971957
0.595648598633372384
0.595648272574416882
0.595647940300105705
0.595647607347005725
0.595664229054414296
0.595664207143519864
0.595664039167780435
0.59566398492482997
0.595663830904708647
0.59566375336045474
0.59566360099174942
0.595663510525935136
0.595663352762944243
0.595663252469844862
0.595663090078958901
0.595662978634868723
0.595662814177998601
0.595662688972029897
0.59566252345509163
0.595662384624996433
0.595662215939274264
0.595662065371707072
0.595661891408109434
0.595661731804258743
0.595661550521468519
0.595661382856720767
0.595661194135983174
0.595661018156526612
0.595660822449126437
0.59566063804540359
0.59566043563869453
0.595660242944134111
0.595660033617763096
0.595659832837133973
0.595659616943934211
0.595659408253596756
0.59565918624828107
0.595658969442386166
0.595658742265920749
0.595658517289580858
0.595658285071147375
0.595658052507796798
0.595657815415825076
0.59565757574841971
0.595657333378637688
0.595657088226159481
0.595656840537920673
0.59565659020009154
0.595656337235048738
0.595656082016768451
0.595655824280682533
0.595655564379854785
0.595655301995515307
0.595655037585254066
0.59565477095933006
0.59565450176541046
0.595654230040910448
0.595653956213482605
0.595653679921172796
0.595653400995961091
0.595653119450164859
0.595652835527295088
0.595652548921842606
0.595652259738436607
0.595651968012935629
0.595651673972851681
0.595651376711847647
0.595651077345243918
0.595650775526269105
0.595650471457018549
0.595650164606201682
0.595649856350490614
0.595649545989568985
0.595649233775472853
0.595648918576884179
0.595648598901287962
0.595648272711542415
0.59564794039128055
0.595647607401654899
0.595664229831453285
0.595664207978383153
0.595664039887507935
0.595663985651996741
0.595663831516375364
0.595663753778970406
0.595663601739838788
0.595663510826443754
0.59566335343096477
0.59566325323537328
0.595663090753259294
0.595662979344162902
0.595662814752437542
0.595662689535731871
0.595662524037768426
0.595662384696296177
0.595662216551648083
0.59566206572779179
0.59566189194189012
0.595661732254728626
0.59566155099050544
0.595661383238687558
0.595661194521404536
0.595661018480320381
0.595660822766638898
0.595660638300283485
0.595660435887292228
0.595660243094400799
0.595660033813134815
0.595659832916529797
0.595659617124390639
0.595659408354155095
0.595659186342031632
0.595658969525397319
0.595658742382170314
0.595658517348171657
0.595658285215850847
0.595658052435012242
0.595657814997079704
0.595657575753648971
0.595657333558878066
0.595657088446353455
0.595656840794816067
0.595656590261010033
0.595656337638992284
0.595656082384461993
0.595655824720344618
0.595655564784480118
0.595655302352723459
0.595655037743831217
0.595654770913861875
0.595654501706861628
0.595654230313386268
0.595653956365741699
0.595653679891571142
0.595653400978251812
0.595653119528069763
0.595652835524546509
0.595652548899578638
0.595652259597257205
0.595651967739328825
0.595651673163942741
0.5956513763908452
0.595651076980395211
0.595650775146910338
0.595650470801969534
0.595650163909511532
0.595649855585747345
0.595649545315557805
0.595649233157761082
0.595648918017649298
0.595648598109741578
0.595648272353984432
0.595647940039523038
0.595647607363693821
0.595664231193028582
0.595664209521056143
0.595664041321793181
0.595663987165926057
0.595663832881515698
0.595663755396613648
0.595663602860700192
0.59566351257248995
0.595663354905019538
0.595663255617845167
0.59566309207598056
0.595662980584322543
0.595662815834924975
0.595662690492609781
0.595662524810349758
0.595662385815863615
0.595662217367546654
0.595662067218273084
0.595661892641616619
0.595661732918657094
0.595661551550183743
0.595661383753714246
0.595661195081122474
0.59566101945302119
0.595660823487384694
0.595660639258326352
0.595660436255231907
0.595660243503514431
0.59566003419674951
0.59565983368499853
0.595659617377250261
0.595659408742038265
0.595659187050723515
0.595658969660650572
0.595658742661702267
0.595658517566599488
0.595658285502776219
0.595658053023319201
0.595657816316514377
0.595657577158272833
0.595657334294789509
0.595657088927200373
0.595656841306290485
0.595656590804998887
0.595656338046730016
0.595656082861233949
0.595655825131796046
0.595655565268362497
0.595655303376950385
0.595655038786072955
0.595654771600695021
0.595654502484914583
0.59565423056028044
0.595653956753861014
0.595653680347746906
0.59565340137718592
0.595653119507157158
0.595652835465121488
0.595652548946462468
0.595652260114682641
0.595651968150474387
0.595651673446721208
0.595651376015477796
0.595651076723514694
0.595650774981739239
0.595650471327346276
0.595650166923808677
0.595649857417880901
0.595649546957431553
0.595649233299266112
0.595648918317299381
0.595648598569471388
0.595648272481387409
0.595647940294468103
0.595647607279940594
0.595664231890578266
0.595664210621065116
0.595664042041750497
0.595663988173257164
0.595663833633431228
0.595663756140269784
0.595663603576469747
0.595663513218466667
0.595663355315641962
0.595663255219186172
0.595663092638023528
0.595662981106997114
0.595662816365174153
0.595662691104567821
0.595662525454783265
0.595662386462183391
0.595662217760422497
0.595662067203256762
0.595661893094354022
0.595661733331115273
0.595661551943350132
0.595661384142871286
0.59566119518820726
0.595661019276133463
0.595660823359941194
0.595660638930096908
0.595660436330879284
0.595660243716539695
0.595660034148590256
0.595659833291510066
0.595659617233911476
0.595659408865063078
0.595659186517791817
0.595658969744573885
0.595658742539762365
0.595658517744411031
0.595658285397208775
0.595658052844164398
0.595657815152056291
0.595657576237019093
0.595657334185822229
0.595657089099228876
0.595656841258613734
0.595656591098436827
0.595656338213934378
0.595656083325564856
0.595655825212603407
0.595655565423042099
0.595655302868942749
0.595655038342455034
0.595654771592230237
0.595654502477176995
0.595654230330997625
0.595653956723733446