/*--------------------------------*- C++ -*----------------------------------*\
  =========                 |
  \\      /  F ield         | OpenFOAM: The Open Source CFD Toolbox
   \\    /   O peration     | Website:  https://openfoam.org
    \\  /    A nd           | Version:  9
     \\/     M anipulation  |
\*---------------------------------------------------------------------------*/
FoamFile
{
    format      ascii;
    class       volVectorField;
    location    "0.01";
    object      U;
}
// * * * * * * * * * * * * * * * * * * * * * * * * * * * * * * * * * * * * * //

dimensions      [0 1 -1 0 0 0 0];

internalField   nonuniform List<vector> 
1800
(
(0.917155167878710764 -1.47818082842220305e-11 0.00306946124356828479)
(1.01068637363652614 -1.47464078291107394e-11 0.004204337743120924)
(0.871979699334882397 0 0.00374662905446388915)
(0.95001068425319668 0 0.00289641892712248512)
(0.850702314248368729 -1.43809994239780853e-11 0.0015808786837467712)
(0.920932345936744667 -1.43441691089086917e-11 0.000929261961671642403)
(0.840136925894914177 0 0.000323917739214260667)
(0.907263290906805242 0 0.000257611236363807904)
(0.837443557695496055 0 3.04986900269662722e-05)
(0.899607788795388164 0 0.000130294032537352678)
(0.83719553982800976 0 0.000450107368700307419)
(0.893884759782354932 0 9.82557191227926728e-05)
(0.837954837896859428 0 0.000158678989252905735)
(0.888637648243236544 -1.4337711990856082e-11 -0.000168971876015346165)
(0.839115374410078996 -1.43374541266140043e-11 -0.000304103197381759116)
(0.955084103404055695 4.43397782560248848e-11 0.0428945549002235429)
(1.05085230372414906 4.42035555234334328e-11 0.0322082045717153112)
(0.961635860806185683 0 0.0328739818625400429)
(1.04641917361452408 0 0.0217549627979009737)
(0.973887455411308611 4.30537239221177339e-11 0.015833847717247572)
(1.04062970507866259 7.15292360421536757e-11 0.00885077521152939639)
(0.975033418295931931 2.85851423859073939e-11 0.005894807050496019)
(1.03383871436573904 0 0.00270323049053934226)
(0.97478417429200781 0 0.00214623390388049996)
(1.02805572743912599 0 0.000660760554868832341)
(0.974463892875285231 0 0.000398030282520035262)
(1.02310745338699549 0 1.98262084427132e-08)
(0.974784163912488344 0 0.000263053109634078959)
(1.0183018219447626 1.42933940417390872e-11 -2.82561244056626668e-05)
(0.975415413180230173 1.42931774628223355e-11 0.000339724737489588836)
(0.95637604245888308 -2.95656810049295528e-11 -0.00349728865640363705)
(1.05610884353904799 -2.94700015925791401e-11 -0.000817516170204705484)
(0.967474907321691613 0 0.000544059395692924664)
(1.05179939194098404 0 0.00125632680978962044)
(0.980225545872202231 -2.87003657397089761e-11 0.00194583536453129613)
(1.04563684344163832 -5.7215563904982043e-11 0.00159896866205380098)
(0.980730537606943842 -8.57413201043034092e-11 0.00160270913441254328)
(1.03865518627561504 0 0.00120151135686646818)
(0.980104457390732042 5.71518921084046344e-11 0.000973505594153190458)
(1.03294434537023605 0 0.000805814087756954013)
(0.979926930844166044 2.8578962687130167e-11 0.000865923545763705492)
(1.02777776211392435 2.85805477929841474e-11 0.000383480315844429069)
(0.980108406699983892 2.85814806830869206e-11 0.000327559999834681681)
(1.02302791968830809 2.8582728126665047e-11 7.98338200482852276e-06)
(0.980530101907336249 0 -0.000213156344258279263)
(0.956443314311848036 -5.91483405474348328e-11 0.0249070108419318995)
(1.04278985968148374 -5.89592740610878344e-11 0.024240560770486707)
(0.961361082928151367 0 0.0278429661167076195)
(1.04161825499215177 0 0.0198164178442471334)
(0.975128549865729055 -5.74096299332983251e-11 0.0162183645773138103)
(1.0402787101679789 -5.72222054839668751e-11 0.00997753938473326142)
(0.978408834031973651 5.71652615661242523e-11 0.00725155175762524657)
(1.03631595737895044 0 0.00396848659908964965)
(0.979489690308510963 -5.71532777394092622e-11 0.00296863234508651982)
(1.03188349669196788 0 0.00129974217370789962)
(0.979791091858545404 -2.85791242982431313e-11 0.00092268344493783678)
(1.02756192482889408 -8.5741435912106833e-11 0.000453273190885866706)
(0.980285812309713012 -8.57441641079073967e-11 0.000485924341721748166)
(1.02296429219111373 -2.85825719330793062e-11 0.000217210857619951417)
(0.980923219412229819 0 0.000560943654071071446)
(0.956399272496477826 -2.35349703155516089e-18 -0.00583321686723625721)
(1.04569932706840585 -5.24953716856382164e-19 -0.00467383619753252658)
(0.962534581803033307 0 -0.00407771827565051904)
(1.04323328135986215 -5.79247668603182986e-11 -0.00182227112241883449)
(0.976061949557454289 -1.77282769342190272e-19 -0.00032672088875972268)
(1.04059713455099989 5.72223955049814566e-11 0.00041983108394338432)
(0.978715333465697279 0 0.00107177007975511624)
(1.03612884661976201 0 0.000989910140329402924)
(0.979439116072775451 0 0.00104837755935564586)
(1.03173098593224855 0 0.000920488560361822929)
(0.97974138558325119 0 0.00089243585978266446)
(1.02723350227852617 5.71611627013210417e-11 0.000454094576684869393)
(0.98021493894642131 5.71630012734507693e-11 0.000354819514601168026)
(1.02276850216242976 0 6.53144545678542018e-05)
(0.980746306424869041 0 -0.000190182029795691118)
(0.956394724351443126 5.91614617984338398e-11 0.0159670611768368449)
(1.03945931004993231 5.8971833463535235e-11 0.0188557271446389875)
(0.959395473454886072 0 0.022090959128772316)
(1.03667555854236015 5.79326237967445367e-11 0.0167735403733820163)
(0.972653731809219435 5.74183106048239375e-11 0.014225656546690172)
(1.03646345568217191 0 0.00926437728685502483)
(0.976664864725533932 0 0.00687151487656457137)
(1.03404294529620566 0 0.00406301436123365431)
(0.978583784880704854 0 0.00294119260705920198)
(1.03065964370552288 0 0.00145149999223935446)
(0.979450043086234845 5.71593095482025657e-11 0.00105866538997037487)
(1.02690206996154787 5.71615670169364514e-11 0.000605044377254701764)
(0.980176430517783581 5.7163259738125521e-11 0.000552652685997664862)
(1.02262577112896658 5.71653100869290521e-11 0.000359331833038434626)
(0.980930728442968802 0 0.000592045404982253056)
(0.956397277731158901 1.18327598241260657e-10 -0.00619677784324551041)
(1.04153869235107388 1.17946932193318988e-10 -0.00699931714078760349)
(0.960483352633854315 0 -0.00727029851014271249)
(1.03883120391630523 0 -0.00475157873860527873)
(0.973940573798907416 1.14838447536123326e-10 -0.00308945383573910838)
(1.03747145503669835 1.14458364669151373e-10 -0.00154048718243862681)
(0.977407210340352828 1.14341698981362879e-10 -0.000408546344046581888)
(1.03426752628265373 1.14315881226961939e-10 3.54448686403947019e-05)
(0.978811058745326701 0 0.000435102538532537719)
(1.03068261905411651 -1.14315890134495385e-10 0.000534712022841954686)
(0.979443191144975467 -1.71479002798689944e-10 0.000563034848574331804)
(1.02669639339464625 -5.71618931304654403e-11 0.000296122008648519572)
(0.980112195087091687 -5.71635823193692253e-11 0.00021874961315671113)
(1.02246636710902727 -1.71496693082245793e-10 7.60021506363093176e-08)
(0.980774677539319906 -1.14329038495564003e-10 -0.000207308437360250244)
(0.956373892272473491 -2.36671895108218783e-10 0.0107928234552132317)
(1.03864661830942606 -2.35919178081385139e-10 0.014508140017813774)
(0.958688150158575891 0 0.0168708332477451699)
(1.03472833979908874 0 0.0134643612944888545)
(0.971564536672388956 -2.29704254158956874e-10 0.0114296315417816222)
(1.03454186027216055 -2.28939671274614384e-10 0.0077391486337825624)
(0.975753151774731431 -1.14351149359630777e-10 0.00568847273694984921)
(1.03267981767383965 -1.14322454174943989e-10 0.00349273422569161551)
(0.978014370678070954 0 0.00242056345509254148)
(1.0298572226652869 1.14319039522135344e-10 0.0012590881343666684)
(0.979176805595372568 1.14321397412589002e-10 0.000894287399701883257)
(1.02643684538133151 0 0.000534544079562181899)
(0.980067189574606257 0 0.000470866022538145952)
(1.0223861842117965 1.14331347843488559e-10 0.000363794928517970756)
(0.980876414777600569 1.14329155962198439e-10 0.000505821686176465631)
(0.956398654246393143 1.18339179113965274e-10 -0.00630425165856107663)
(1.039895462349262 1.179632074326092e-10 -0.00870493568696591342)
(0.95962716911328072 0 -0.00961664494762303791)
(1.03685714979439503 0 -0.00742783920105988347)
(0.972981135859354529 1.14853851787424893e-10 -0.00575637013271453144)
(1.03597338748704337 1.14470134524021897e-10 -0.00368369352007095422)
(0.976763177712650088 0 -0.00223180777387138466)
(1.03332213073439871 0 -0.00122712293386175201)
(0.978478215091459713 0 -0.000536319384563248487)
(1.03011399906436929 0 -0.000130508679272741779)
(0.979274244558747675 0 2.79948654242544387e-05)
(1.02639587001172705 0 -1.18139334317968432e-05)
(0.980038116875161514 0 -3.42595989325812227e-05)
(1.02231035529719683 0 -0.000128196020611755321)
(0.980787911343008689 0 -0.000256326947125178604)
(0.956386650376826797 -1.18344582936065315e-10 0.00721523618421588808)
(1.03870436190435633 -1.1797192781143876e-10 0.0106166442842769923)
(0.958518118002842923 0 0.0120991986559939608)
(1.03438098958816505 -1.15894147389009209e-10 0.0100411306018259872)
(0.971226156756360814 -1.14865296024735788e-10 0.00840306946194439852)
(1.03390659287742359 0 0.00582201300614210247)
(0.975381025023195569 0 0.0041724014684085169)
(1.03215048039185509 0 0.00260871518506715404)
(0.977753693426796966 0 0.00167208316813967535)
(1.02954265172041937 0 0.000895221826064949056)
(0.979020682838509515 0 0.000571321219903338988)
(1.02621442580657418 0 0.00034569094803754512)
(0.979940337722931765 0 0.00029778787013333912)
(1.02220446528447328 0 0.000290090154182924792)
(0.980791291506663998 0 0.000382478733674223865)
(0.956362825457411247 1.18344552702799783e-10 -0.00724025643743542516)
(1.0387025371148173 1.17971802057311545e-10 -0.010660477885375658)
(0.958546003162542681 0 -0.0121470958216723952)
(1.03445409680694733 1.15893862273511373e-10 -0.0100763948396162886)
(0.971331737557933672 2.29729895221320253e-10 -0.00841819259605414844)
(1.03402760447343867 1.14479693900486792e-10 -0.00582461650334980922)
(0.97549435374878668 0 -0.0041670498403196532)
(1.03224097429211059 0 -0.00260257762901732956)
(0.977819923914510891 0 -0.00166187738472304289)
(1.02959819871306113 -1.14322104022944516e-10 -0.000889435035977566573)
(0.979066546273186011 -1.14323887517989043e-10 -0.000569939863303965417)
(1.02625752748840582 0 -0.00034833017272945866)
(0.979981513065482868 0 -0.000307585341380906755)
(1.02224178800092047 0 -0.000311706677152230041)
(0.98080835840121483 0 -0.000412198004444717177)
(0.956398328927061558 0 0.0062850294015429865)
(1.03989903621495317 0 0.00863641678963924034)
(0.959648715951709863 0 0.00951823946736798238)
(1.03689509691802062 0 0.00734057157064219121)
(0.973031358912818334 -1.14853603120264579e-10 0.0057022527667182181)
(1.03601375084941361 -1.14470005561635748e-10 0.00366720738528132422)
(0.976793332906046974 0 0.0022432769781604656)
(1.03332887329379752 0 0.00125968791587292698)
(0.978475511322855263 0 0.000572685307090764028)
(1.03010285109310917 1.14319412867225999e-10 0.000165648278202082801)
(0.979259937303883388 2.28644215326042216e-10 1.38488223265485387e-06)
(1.02638323268549425 1.14325501449038267e-10 3.2395885601366279e-05)
(0.980025939208627572 1.14328539212105857e-10 5.33592081701116775e-05)
(1.02229599913950842 1.14331843585696818e-10 0.000156151046314124183)
(0.98077047750219315 0 0.000286225262158075824)
(0.956374004143442313 0 -0.0108196480172553233)
(1.03865192400813711 0 -0.0145761232205734934)
(0.958681490243812884 0 -0.0169527851352644053)
(1.03471159900070675 -2.31760825291101389e-10 -0.0135266580739868501)
(0.971536026875929215 -4.59408188753994187e-10 -0.0114498792356289968)
(1.03451566321000721 -2.28939811145144103e-10 -0.00772553975473872813)
(0.975733567181482742 0 -0.00565384609983503837)
(1.03267104356445349 0 -0.00345819325796469651)
(0.978010295152962561 0 -0.00239717983120671949)
(1.02985269131645718 0 -0.00125008249647788291)
(0.979169087531530757 -1.14321486134559658e-10 -0.000898972527879385221)
(1.02642452042053667 -1.14324946953384591e-10 -0.000543089051812463246)
(0.980051611020176905 -1.14327928592296203e-10 -0.000487335864796413444)
(1.02237318289917423 -1.14331380181810863e-10 -0.000392249506152237478)
(0.980869483747228377 0 -0.000543236498462858555)
(0.956397329118882533 2.3665494128288355e-10 0.00617572229823049219)
(1.04154302175705515 2.35893218621716014e-10 0.00693979145929915411)
(0.960496808912949307 0 0.00719184884330935272)
(1.03884783154203575 2.31734486326510989e-10 0.0046838052990190995)
(0.973953611436721767 4.59353230927306986e-10 0.00304492088618827685)
(1.03746841608104168 2.28916786748241774e-10 0.00151894712332057932)
(0.977388101913658769 2.28683712877277749e-10 0.000408205354644248293)
(1.03424037131749658 2.28632186048612989e-10 -1.48826200685029156e-05)
(0.978784771846826329 0 -0.000400644922116156891)
(1.03066471226502299 -2.28632093629011689e-10 -0.000494909052822181932)
(0.979430010199551782 -2.28638880752869625e-10 -0.000526122704908285241)
(1.02668747641754377 0 -0.000272880500945493667)
(0.980097634969785525 0 -0.000198493031349296936)
(1.0224491771161186 -2.28662345258747955e-10 2.22521192730867682e-05)
(0.980756541047111186 -2.28658119635568562e-10 0.000227542184512353595)
(0.956394558505633152 -2.36645580864719219e-10 -0.0159968390705930476)
(1.03945937516110187 -2.35886713896760365e-10 -0.0189329887788997724)
(0.959384939683137761 0 -0.0221820999652069181)
(1.03665877920333194 0 -0.0168349395660150024)
(0.972638005973442299 0 -0.0142302811974923671)
(1.03645033651513341 0 -0.00922597832720458561)
(0.976651693776841801 -2.28682240997734533e-10 -0.00681775190075303156)
(1.03402983067739362 -2.2863115053800801e-10 -0.00402289322045823634)
(0.97856988201000128 0 -0.00292444298988755406)
(1.03064610998841077 2.28631227646583698e-10 -0.00145326477989717279)
(0.979431732479250972 2.28637484366511057e-10 -0.00107086783444759834)
(1.02688000320896733 0 -0.000608344555862606407)
(0.980156737625051733 0 -0.000563779674046161155)
(1.0226083958067389 2.28661362044680458e-10 -0.000384797866253012771)
(0.980907413287777308 2.28657041783289795e-10 -0.000627527246269242965)
(0.956399266708050866 -2.36614289331886121e-10 0.00581336709075341938)
(1.04569868265872779 -2.35845547863708042e-10 0.00462395220450130279)
(0.962530335744962717 0 0.0040132089969543254)
(1.04321920254733413 0 0.00175989557542156655)
(0.976042333170494159 -2.29640985984355386e-10 0.000280555965224559987)
(1.04057128598009618 -2.28889811207187468e-10 -0.000442536709147584235)
(0.978687748774114463 0 -0.00107093402198550191)
(1.03610118279840435 0 -0.000967938494508708072)
(0.979408426150878197 0 -0.00101210857143986446)
(1.03170301870966985 0 -0.000875243464528453188)
(0.979712535153998476 0 -0.000847230743650286239)
(1.0272170475115896 0 -0.000431573972699284436)
(0.980185483076113862 0 -0.000335309083334598172)
(1.02274129814259984 0 -3.95227386440085392e-05)
(0.980729857602302579 0 0.000213910915823440918)
(0.956443044586433033 2.3659313509226012e-10 -0.0249358779186680986)
(1.04278694409930384 2.35836550265396423e-10 -0.024313955852950625)
(0.961348572242369248 0 -0.02792392911473527)
(1.04159005993167164 0 -0.0198656948728157916)
(0.975082906555383877 2.29638570235102214e-10 -0.0162131777550910544)
(1.04022477125638724 2.28889243407256229e-10 -0.00993279982581172713)
(0.978352616832026345 0 -0.0071952690929799612)
(1.0362704736039845 0 -0.00392583198442974807)
(0.979449668167318821 0 -0.00295098619266203526)
(1.03185468948915426 -4.57250773434461312e-10 -0.00130285978922722412)
(0.979760796116119104 -4.57266631188759761e-10 -0.000943978183164326853)
(1.02752774503007505 0 -0.00045319036265974741)
(0.980261112892222397 0 -0.000490358208095714688)
(1.02295470200970939 0 -0.000250621243350327599)
(0.980912500667094345 0 -0.000609495860183970105)
(0.956375852423503869 0 0.00348126525588231565)
(1.05610077662589164 0 0.000779101781382595922)
(0.967461698461434705 0 -0.00058771512604384056)
(1.05177202314554363 0 -0.00129210023115952513)
(0.980183587548236646 0 -0.00197066711089853228)
(1.04557822051736538 0 -0.00161290322217643952)
(0.980657531716419784 0 -0.00160611049599586873)
(1.03858852802373924 0 -0.00119068503709776922)
(0.980038306832113015 0 -0.000947842252783486156)
(1.03289495404268483 4.57244820759339944e-10 -0.000766298368266403809)
(0.97987873616856469 9.14528122935862047e-10 -0.000814826166766632345)
(1.02776464406109347 4.572891179762305e-10 -0.000364815932305295298)
(0.980092886854031953 0 -0.000324657562717841947)
(1.02300781647704575 0 7.24735223716285534e-06)
(0.980516306271945637 0 0.000245050652749734656)
(0.955082494192851961 0 -0.0429165470898248899)
(1.05083374637679272 0 -0.0322708972721912554)
(0.961578199822371693 0 -0.0329401430927624833)
(1.04633420597732152 0 -0.0217822199697134677)
(0.973783924425267622 -2.2962024246014561e-10 -0.0158038590120040227)
(1.04053498509660836 -2.28894271836046038e-10 -0.00878257024510977619)
(0.974949195991921203 0 -0.00583102041615406533)
(1.03377695108965351 0 -0.00266557951212645231)
(0.97473065849337126 0 -0.00214065413070631087)
(1.02802322208075059 0 -0.000676658807471543526)
(0.974444645761643247 -4.57334460713057426e-10 -0.000446498658731599954)
(1.02309338569192243 -4.57357667128060989e-10 -2.26007288356239473e-05)
(0.974773585152766464 0 -0.000261999493831529553)
(1.01829911989650967 0 -4.42419752920651146e-06)
(0.975388592070099536 0 -0.000398971045888192903)
(0.917154533896665125 -2.36508902925119927e-10 -0.00306927087105730986)
(1.01065936992961203 -2.35942462811857196e-10 -0.00419804004806120269)
(0.871906369474891862 0 -0.00373850240002291051)
(0.949909641087710699 -2.31903888230435294e-10 -0.00289559973088238717)
(0.850595397995565827 0 -0.00159600916988700942)
(0.920854802155535057 2.29507194807610463e-10 -0.000956866588305388898)
(0.840084791480784854 0 -0.000349414626376408843)
(0.907239848077564082 0 -0.000268572126197886034)
(0.837428052962929992 0 -2.45749184987908687e-05)
(0.899601816081709083 0 -0.000114653430383951935)
(0.837181609950669037 0 -0.000411276901783653689)
(0.893867147643150006 0 -8.42013747888829822e-05)
(0.837932214919871243 0 -0.000163392730435794312)
(0.888616289560839379 0 0.000198816211765286745)
(0.839090315806966913 0 0.00035568222840279604)
(0.879748837993600818 0 -0.00095349477967102505)
(0.84533497754922593 -1.42426604115686944e-11 -0.000474869965837423978)
(0.874337480262749045 -1.42431568381350157e-11 -0.000227833908099908298)
(0.846828108308607552 6.40959898780289303e-10 -0.000171937986400614364)
(0.870162436237584047 -1.50986550444076388e-09 -0.000267124144008313994)
(0.847477856420879805 8.40419909199191447e-10 -0.000277634673792293571)
(0.866773260366073162 0 -0.000325939090207692686)
(0.847726543490106565 -4.27356384519985112e-10 -0.000278282914680215063)
(0.863730796489245001 4.27368471265879678e-10 -0.000287840045386679368)
(0.847870150702231373 8.54759383919101798e-10 -0.000232858543228127126)
(0.860863164943188597 -1.28217349729885433e-09 -0.000250632693851207645)
(0.847915098839487569 4.2740229216757526e-10 -0.000194745760328289986)
(0.858228126020600612 0 -0.000177427434572361353)
(0.847739291057109545 0 -0.000120207658586546961)
(0.855920085190367774 0 -0.000101169659272211455)
(0.847293752559417523 4.27445516597095909e-10 -7.11655542875998281e-05)
(0.853925779707031651 -4.2745605148412205e-10 -6.39743807941111085e-05)
(0.846645939844599127 0 -5.39321952940776197e-05)
(0.852140001442846406 0 -4.44863118045038479e-05)
(0.845909243231250607 0 -3.08445895041474061e-05)
(0.850456646550919237 0 -7.74775269992426563e-06)
(0.845169393345413078 -4.2750633639371632e-10 -6.08715674161906329e-05)
(0.848844973967744609 4.27516057643574569e-10 -9.41627994083159216e-05)
(0.844429911672088362 1.42508494407103822e-11 -8.29898055282927245e-05)
(0.84728449231675218 -7.41655262490403158e-26 8.85410731822338475e-06)
(0.843670010252001723 -1.42514757400140234e-11 7.34436432658856499e-06)
(0.845808050823088631 1.71021170057554044e-09 -7.87612532855709162e-05)
(0.842971497651636148 -1.72450017694748265e-09 -0.000413967748779275782)
(0.844396803298327114 -1.42523643431540632e-11 0.000105725027129714878)
(0.842179768158520359 0 0.000450580111423465844)
(0.843055230072954132 8.55175677036980653e-10 6.64313394552599096e-05)
(0.841474442874291184 -1.71038457988843068e-09 -0.000245061984226369219)
(0.841839456316068935 -2.56562495880565692e-09 0.000109799966469599361)
(0.840701765138035295 3.42089901368605245e-09 0.000128547456035512996)
(0.840697596031671601 -8.55239724891297043e-10 -0.0002112052191032737)
(0.839928056405483403 2.56576530543358822e-09 3.04985348035539863e-05)
(0.83965822084400199 -1.71054015562994553e-09 0.00013359728069545771)
(0.839128779284968429 0 -0.000175621387191357336)
(0.838737435949648891 0 -0.000126613961571509458)
(0.838321951190677983 0 -0.000323250648113125203)
(0.837909402129542347 0 0.000118540437379374838)
(0.837464240799750681 0 0.000239167912466686501)
(0.837143864817224026 0 -0.000263598107954742076)
(0.836729073315340521 1.71072614101403049e-09 -6.02591361044341536e-05)
(0.836425434731972395 -1.71075070437176217e-09 -0.000325334380296370118)
(0.836022767463974081 0 -0.000175811601142090941)
(0.835682161651331912 8.55398212635242388e-10 0.000504990220359213056)
(0.835334921092867222 -8.55409286808491925e-10 0.000247411898509026628)
(0.835057448027699545 0 -0.000144052719959637164)
(0.834750148942022152 0 -0.000226120439974478437)
(0.834469250422720465 0 -0.000286049187712348783)
(0.834158502531015866 0 -0.00021658205723328622)
(0.833910913562171618 0 0.000306504101831400711)
(0.833638657189931909 0 0.000115480502045010503)
(0.833405467151740242 -1.71094563501593508e-09 -0.000293606369918093411)
(0.833175840735438267 1.71096127898826523e-09 -0.000282339824776433126)
(0.832968596457584587 0 -3.651468032441968e-05)
(0.832731040577588399 -1.71098895652857218e-09 0.000481366590139210176)
(0.832541996499076897 1.71100065403755686e-09 0.000188554614707161215)
(0.832421710886825594 0 -0.000731999957899771869)
(0.83222141697948171 -3.42204413638521673e-09 -0.000342621911715036351)
(0.832028997578233898 3.42206987292544458e-09 0.000625533827565819423)
(0.831896932437233616 -1.71104279514993833e-09 0.000213571792117922624)
(0.83179303370757085 -1.71105028426551607e-09 -0.00083478662145268891)
(0.831648529992433772 6.84423754396667735e-09 -0.000168744139716343986)
(0.831534715046203687 -6.8442677252585631e-09 0.000633333704704444134)
(0.83146375172619047 3.40788480115979149e-09 -4.21415284578458444e-05)
(0.831386697219219983 -1.42589703305289919e-11 -0.000861489067292941623)
(0.83131342963310928 3.42216317503445856e-09 -0.000153347946511088278)
(0.831197958092827593 -6.00306361222684579e-09 0.00064705446152554867)
(0.831204247650011219 2.55237551699578644e-09 -0.000408068670463832006)
(0.831129540006493528 1.71109111945290601e-09 -0.00109498140573833429)
(0.831065032331074427 -8.55548624469331981e-10 -0.000480743555867036484)
(0.831012874251352063 -8.55549602668566117e-10 -0.000193648449628842012)
(0.832493129811512911 0 -6.59810807167522423e-05)
(1.01011242419156733 0 0.000852308586997610322)
(0.980431117984181699 1.41854915081306362e-11 0.000859344534573016662)
(1.00518793042159649 1.41859996633622943e-11 0.000172921495218358867)
(0.981740111391629866 8.51179171682193242e-10 0.000473745869151223512)
(1.00150811054627087 -1.65985334703258328e-09 0.00018017762249494576)
(0.982143740946839761 8.65414578812649589e-10 0.000504069543993674435)
(0.998450089563437948 -2.83751235008948276e-11 0.000214126809749587887)
(0.982139292329900937 -4.25637696065380567e-10 0.000445181890181581123)
(0.995676601578627918 1.17344257821432319e-16 0.000172853701587045397)
(0.982057982574474186 1.27698261886598993e-09 0.000352484070326589301)
(0.993017233570020363 -8.51345085011103748e-10 0.000140148396854927407)
(0.981878114908606991 0 0.000286634080363606307)
(0.990546989803339328 0 7.63002925220999245e-05)
(0.981520273815905453 0 0.000191857391804763983)
(0.988390961703298543 0 1.00163417762831852e-05)
(0.980942503425649592 4.25726812254903856e-10 0.00012822540050106955)
(0.986524170809615852 -4.25737059571617123e-10 -1.90971914002224639e-05)
(0.980179249834058242 0 0.000102194137913701609)
(0.984823444553674543 0 -2.84609639571115292e-05)
(0.979342736675353764 0 7.30239916593156124e-05)
(0.983234281901627427 4.25777161665681726e-10 -5.99313836067451097e-05)
(0.978535138240678948 -8.5157461153289125e-10 8.2118857993548051e-05)
(0.981650061809171248 1.27739162349270712e-09 4.4362380843148738e-05)
(0.977692264199014893 -8.65807336725716978e-10 0.0001088635966670244)
(0.980091805321843701 -8.23244057122568729e-10 -3.10233005981381076e-05)
(0.976976244499116575 8.9423265684684146e-10 -2.70943734297002381e-06)
(0.978688040794533975 1.70333558069303052e-09 -7.21233649783179917e-06)
(0.976114212476839938 -1.66078878782071616e-09 0.000437914964198054808)
(0.977097717112339836 4.25853147029934938e-11 -3.28049303390308362e-05)
(0.975352511523354448 2.83905997915112646e-11 -0.000352553625538971666)
(0.976183914122033203 2.83911466174832001e-11 -0.000100799751116564327)
(0.974589236622904864 -8.51751942529998428e-10 0.000233833811780612941)
(0.974725909147214686 -8.51769912722092741e-10 -6.50395808328167919e-05)
(0.973837552018426145 1.70356957893072589e-09 -0.000121970137881488453)
(0.973741315560265552 0 0.00019355398572884708)
(0.972907245405882026 8.51816587066706985e-10 -1.0727379616152907e-05)
(0.972700932145294739 -1.70365945600265358e-09 -0.000146470524552979936)
(0.972224033106013241 8.51844545786587456e-10 0.000170730661202718594)
(0.971721401220121961 0 0.000106677632524364546)
(0.971295862542114974 0 0.000321101829539074761)
(0.970731722221150783 0 -7.04410771580465792e-05)
(0.970585518729113139 0 -0.000248236931109557281)
(0.970190924189163639 0 0.000244203752245791827)
(0.969678743981410296 1.7038494237687645e-09 3.72711104311990933e-05)
(0.969383859801299264 -1.70387573034477355e-09 0.00031991159675920567)
(0.968821286977943896 8.51951061811315238e-10 0.000204292960013263968)
(0.968536194324287281 -3.72291099979695588e-16 -0.000380492195220330206)
(0.9685063131146181 -8.51965780574210299e-10 -0.000248331679686965312)
(0.968154283980996122 0 0.000111506935567907419)
(0.967760513185795035 0 0.000218881789413041209)
(0.967445907081170953 1.70399798176730178e-09 0.000293414904161138463)
(0.967059660758286421 -1.70402091432674686e-09 0.000217731072300468055)
(0.966716761908235522 0 -0.000224777239253312128)
(0.966750410381394754 0 -0.000138660516025601919)
(0.96642508798447202 -1.70406342805410578e-09 0.000285027448862940882)
(0.966069853109102983 1.70408458284329719e-09 0.000276040015152451525)
(0.965776907103689575 0 6.04385665106434291e-05)
(0.965616413809501584 -1.70410684897332767e-09 -0.000392101800224096031)
(0.9656741548581812 1.70411389642013232e-09 -0.000227455986053702879)
(0.965453709499247248 0 0.00070241826891579112)
(0.964877754090661788 -3.40830163648929346e-09 0.000396464384452658637)
(0.964865324889552567 2.5562304850326128e-09 -0.00052360684006339561)
(0.96504084387917255 -8.52076243891278065e-10 -0.000223910401279679775)
(0.964900152954456858 1.70416430009004912e-09 0.000819000063882016605)
(0.964302868568785221 3.40837256378471662e-09 0.000196842338330866358)
(0.96446780869832871 -4.26044830411882549e-09 -0.00061673434327889009)
(0.964716526440472233 8.66293809656579868e-10 -9.15542010455692692e-05)
(0.964350759359767995 1.4201585504693099e-11 0.000867345962020892904)
(0.963874514249238756 3.40842712487811276e-09 0.000192431801616336069)
(0.964146674978749507 -3.3941976538781844e-09 -0.000603472851132023447)
(0.96443294633495924 1.42016580759609011e-11 0.000353868812981049418)
(0.964186373999790902 8.52099623580734639e-10 0.00117397221493247971)
(0.963935431179690827 -4.24542145193909604e-16 0.000546915520030043906)
(0.96398923755865551 -8.52109603441165796e-10 0.000280770245319895159)
(0.96551711072285118 0 0.000119823824710134447)
(1.01472843147621861 0 -0.000630909790581265302)
(0.985906829184704181 0 -0.000401280844764284519)
(1.01015914335609125 2.8366772812801647e-11 -0.000181581737208965662)
(0.987033545197215867 4.53880242952393486e-10 -0.000201928002178481742)
(1.00646528492939491 -4.53894875857780995e-10 -0.000172550530746533304)
(0.987408618804148763 0 -0.000258186330596741048)
(1.00349455121993647 5.67399404652517812e-11 -0.000235610266537055287)
(0.987414584349101232 -8.22749517763182658e-10 -0.000279103039617474016)
(1.00075420098243617 4.25572481753347028e-10 -0.000245154274857820563)
(0.987309153532633932 4.25583211574575594e-10 -0.000228020742973085916)
(0.998117386977821153 0 -0.000205344785595474487)
(0.987135674913672156 0 -0.00018584470599273452)
(0.995673681259000687 0 -0.000141723881680102501)
(0.986782944054369504 0 -0.000137343981749237626)
(0.993514465969210447 0 -8.5877822480756236e-05)
(0.98617118441406193 8.51298100188459207e-10 -9.60230628414531769e-05)
(0.991624663754288593 -8.51318759685363005e-10 -4.49335032433689855e-05)
(0.985393276194330037 -5.67559711262050273e-11 -5.86683952996745463e-05)
(0.989925978372351523 -5.67573329773003656e-11 -2.44945229854393684e-05)
(0.984530984869221304 0 -5.58458887595739839e-05)
(0.988324152797035116 4.25699935845700006e-10 -9.0791444965460818e-06)
(0.983679589887019645 -9.08181486302170839e-10 -4.41483972474318942e-05)
(0.986747024599496592 1.2487780359089335e-09 -4.12423302243283534e-05)
(0.982901358673620273 -8.23075724017531114e-10 -3.94730581007927923e-05)
(0.985287967056258318 -8.79858347730660999e-10 -5.48158767991757746e-05)
(0.982041907672157932 8.23112812438434944e-10 -7.60941980836321896e-06)
(0.983820175651142215 1.27727141702588285e-09 -4.08566282124064908e-06)
(0.981199234465094161 -1.30567753273177632e-09 -0.000146821534941291129)
(0.982645026303536007 2.19333475389965417e-21 -8.44092657830561787e-05)
(0.980496819668216446 2.74427447635975874e-20 -5.86240924281504467e-05)
(0.981081202159063914 -2.83861399490688317e-11 2.03591282182621517e-05)